(written by ASE)

48 atoms
5 atom types

0.0      5.7972898483000002  xlo xhi
0.0      5.0159393033999997  ylo yhi
0.0           14.3324726996  zlo zhi
    -2.9067030275999999   -0.024440083900000003    0.014084338000000002  xy xz yz

Atoms # atomic

     1   2      2.5863950352078295      5.1321365616940975      14.260957791176576
     2   2      1.3980601064662361     0.83349164175037183      4.6159961178066924
     3   2  -0.0065635841264130388      1.8836167087951186      9.4436957165479036
     4   2     -1.6841573412797239      2.7046294022012964   -0.026084067816198094
     5   2      1.3312731845422674      2.6145871066500135      14.285574447491433
     6   2      0.1218817639650651      5.1150242901356719   -0.042796797987573049
     7   2    0.025727371609658739      3.3808683377850159      4.6846250471029265
     8   2      2.9125973400991589      3.3402384373740244      4.7614753692691103
     9   2      4.4525750570453484     0.98162946762249537      4.8340105502531472
    10   2      -1.527577410612321      4.2816948836599851      9.5968646728298115
    11   2      1.4413406286470292      4.4015683103206564      9.5401519588687229
    12   2       2.833123112603352      1.7019417634967591      9.4132282125013571
    13   4      5.7775473309527063    0.020224897830981768      7.1954671750163808
    14   4    0.082773145597571429      1.6737809311533547      2.4006426198355171
    15   4        4.36543883276663      2.4660275473589475      7.2568166553739708
    16   4      1.4840039875599147      2.4400191204327264      7.2000034668961748
    17   4       2.974243068910885    -0.14283908852797808      7.1332807876055373
    18   4    -0.17872385807157351      3.3172280117480386      11.938361073207219
    19   4      2.8085771643556869      3.2872294751278299      11.925335386043441
    20   4      4.1759754609392417     0.82607911611056695       11.82696710672827
    21   4     -1.3778818881719823      4.2388207162553488      2.4159740103807033
    22   4      2.9944859017243175      1.8187565448100502      2.4882891125187978
    23   5      2.7165689699730722      5.0953861948615424      3.5121481623171187
    24   5   -0.052163195249294088    0.051926598144701512      10.805132486650855
    25   5      1.4357307645797888     0.84340694159052587      8.1382771975464347
    26   5      1.4593999632456593     0.95294786422387612      1.4243354978644815
    27   5     0.17875114165748854      1.7237036897084717       12.98522484986988
    28   5    0.080526951052545689      1.7715417142776659      6.1134851914439334
    29   5      4.5389156647994291      2.4645863867099052      3.4460940297306561
    30   5      4.3160241971593445      2.4598669122957251      10.894133338876113
    31   5      1.5191717793540307       2.647450514589087      3.4743652515189813
    32   5      1.4470460085876709      2.4533438946096298       10.82044549896751
    33   5    -0.12640271085095825      4.9823950125810255      3.4876827143694271
    34   5      2.6430180753184445    0.092173618458650242      10.864144075927838
    35   5   -0.075470447016862965      3.4181757072166068      8.3665187109720769
    36   5    0.019081543164023176      3.4009318916959108      1.3248237895254904
    37   5      2.8420266082305243      3.3162624848247289      8.2353681155690754
    38   5      2.8618145282216947      3.5586530159745871       1.335817230033616
    39   5      4.3181226520690865     0.78311967492168788      8.2464018683040106
    40   5      4.2926439964503356     0.78453093860980805      1.3836945566473797
    41   5     -1.4747708804809425      4.2664530788447257      12.996372713192372
    42   5     -1.5173108412831893      4.0999287472507859      6.1752235885339681
    43   5      1.3354615788447008      4.2854010033860277      12.937231409581292
    44   5      1.5716886510585804      3.9578596690300905      6.1643134520797389
    45   5      2.9243438889320474      1.6273082853984371      13.016147978535285
    46   5      3.0173781968063569      1.4136678205985009      5.9880635337541923
    47   3      1.3729980448408605     0.85703457561321783      11.844639726874613
    48   1      1.4416650624652836      4.1988258238371339      2.3978302612268663
