LAMMPS data file via write_data, version 29 Aug 2024, timestep = 0, units = metal

384 atoms
5 atom types

0 11.5945796966 xlo xhi
0 10.0318786068 ylo yhi
0 28.6649453992 zlo zhi
-5.8134060552 -0.048880167800000006 0.028168676000000004 xy xz yz

Masses

1 58.9332
2 6.941
3 54.938
4 58.6934
5 15.999

Atoms # atomic

1 2 2.5863950352078295 5.1321365616940975 14.260957791176573 0 0 0
2 2 1.3980601064662361 0.8334916417503718 4.615996117806692 0 0 0
3 2 -0.0065635841264133875 1.8836167087951186 9.443695716547904 0 0 0
4 2 9.861542187520278 2.732798078201297 28.638861331383797 -1 0 -1
5 2 1.3312731845422674 2.6145871066500135 14.285574447491427 0 0 0
6 2 0.07300159616506616 5.143192966135672 28.622148601212427 0 0 -1
7 2 0.02572737160965876 3.380868337785016 4.6846250471029265 0 0 0
8 2 2.9125973400991594 3.3402384373740244 4.76147536926911 0 0 0
9 2 4.452575057045351 0.981629467622495 4.834010550253147 0 0 0
10 2 -1.527577410612321 4.281694883659985 9.59686467282981 0 0 0
11 2 1.441340628647029 4.401568310320656 9.540151958868723 0 0 0
12 2 2.833123112603352 1.701941763496759 9.413228212501357 0 0 0
13 4 5.777547330952708 0.020224897830981768 7.195467175016379 0 0 0
14 4 0.08277314559757146 1.6737809311533547 2.400642619835517 0 0 0
15 4 4.36543883276663 2.4660275473589475 7.25681665537397 0 0 0
16 4 1.4840039875599147 2.4400191204327264 7.200003466896174 0 0 0
17 4 -2.8391629862891135 9.889039518272023 7.1332807876055355 0 -1 0
18 4 -0.17872385807157357 3.3172280117480377 11.938361073207213 0 0 0
19 4 2.8085771643556865 3.28722947512783 11.92533538604344 0 0 0
20 4 4.175975460939242 0.8260791161105666 11.82696710672827 0 0 0
21 4 -1.3778818881719823 4.238820716255349 2.4159740103807033 0 0 0
22 4 2.9944859017243175 1.8187565448100498 2.488289112518798 0 0 0
23 5 2.716568969973072 5.095386194861542 3.5121481623171174 0 0 0
24 5 11.54241650135071 0.051926598144701505 10.805132486650855 -1 0 0
25 5 1.4357307645797888 0.8434069415905259 8.138277197546435 0 0 0
26 5 1.4593999632456591 0.9529478642238766 1.4243354978644815 0 0 0
27 5 0.1787511416574886 1.7237036897084717 12.985224849869876 0 0 0
28 5 0.08052695105254523 1.7715417142776666 6.113485191443933 0 0 0
29 5 4.538915664799429 2.4645863867099056 3.446094029730656 0 0 0
30 5 4.316024197159345 2.459866912295725 10.894133338876108 0 0 0
31 5 1.5191717793540296 2.647450514589088 3.4743652515189805 0 0 0
32 5 1.4470460085876709 2.4533438946096298 10.820445498967507 0 0 0
33 5 -0.12640271085095836 4.9823950125810255 3.487682714369427 0 0 0
34 5 2.643018075318446 0.09217361845865021 10.864144075927834 0 0 0
35 5 -0.07547044701686222 3.418175707216607 8.366518710972077 0 0 0
36 5 0.019081543164023104 3.400931891695911 1.3248237895254902 0 0 0
37 5 2.842026608230524 3.316262484824729 8.235368115569075 0 0 0
38 5 2.8618145282216956 3.558653015974586 1.335817230033616 0 0 0
39 5 4.3181226520690865 0.7831196749216879 8.24640186830401 0 0 0
40 5 4.292643996450337 0.784530938609808 1.3836945566473797 0 0 0
41 5 -1.4747708804809427 4.266453078844726 12.996372713192372 0 0 0
42 5 -1.5173108412831902 4.099928747250786 6.175223588533967 0 0 0
43 5 1.3354615788447004 4.285401003386028 12.937231409581292 0 0 0
44 5 1.5716886510585788 3.9578596690300905 6.164313452079739 0 0 0
45 5 2.9243438889320474 1.627308285398437 13.016147978535285 0 0 0
46 5 3.017378196806358 1.413667820598501 5.988063533754192 0 0 0
47 3 1.3729980448408603 0.8570345756132178 11.844639726874613 0 0 0
48 1 1.4416650624652856 4.198825823837134 2.3978302612268663 0 0 0
193 2 2.5619549513078286 5.1462208996940975 28.59343049077657 0 0 0
194 2 1.373620022566236 0.8475759797503718 18.94846881740669 0 0 0
195 2 -0.03100366802641339 1.8977010467951185 23.776168416147904 0 0 0
196 2 9.885982271420277 2.718713740201297 14.306388631783802 -1 0 0
197 2 1.3068331006422675 2.6286714446500135 28.618047147091424 0 0 0
198 2 0.09744168006506528 5.129108628135672 14.289675901612425 0 0 0
199 2 0.0012872877096587604 3.394952675785016 19.017097746702927 0 0 0
200 2 2.8881572561991584 3.3543227753740243 19.09394806886911 0 0 0
201 2 4.42813497314535 0.9957138056224952 19.166483249853147 0 0 0
202 2 -1.5520174945123213 4.295779221659985 23.92933737242981 0 0 0
203 2 1.416900544747029 4.415652648320656 23.872624658468723 0 0 0
204 2 2.8086830287033524 1.716026101496759 23.74570091210135 0 0 0
205 4 5.753107247052708 0.03430923583098177 21.52793987461638 0 0 0
206 4 0.05833306169757145 1.6878652691533547 16.733115319435516 0 0 0
207 4 4.34099874886663 2.4801118853589474 21.58928935497397 0 0 0
208 4 1.4595639036599146 2.4541034584327264 21.532476166496174 0 0 0
209 4 -2.8636030701891158 9.903123856272023 21.465753487205536 0 -1 0
210 4 -0.20316394197157311 3.3313123497480377 26.270833772807208 0 0 0
211 4 2.7841370804556864 3.30131381312783 26.257808085643433 0 0 0
212 4 4.151535377039242 0.8401634541105668 26.159439806328265 0 0 0
213 4 -1.402321972071983 4.252905054255349 16.748446709980705 0 0 0
214 4 2.9700458178243156 1.83284088281005 16.820761812118796 0 0 0
215 5 2.6921288860730725 5.109470532861542 17.844620861917118 0 0 0
216 5 11.51797641745071 0.06601093614470151 25.137605186250855 -1 0 0
217 5 1.4112906806797894 0.8574912795905258 22.470749897146433 0 0 0
218 5 1.4349598793456593 0.9670322022238762 15.756808197464482 0 0 0
219 5 0.1543110577574886 1.7377880277084716 27.31769754946987 0 0 0
220 5 0.056086867152545225 1.7856260522776666 20.445957891043932 0 0 0
221 5 4.514475580899431 2.4786707247099056 17.778566729330656 0 0 0
222 5 4.291584113259345 2.473951250295725 25.226606038476106 0 0 0
223 5 1.4947316954540313 2.6615348525890874 17.806837951118982 0 0 0
224 5 1.422605924687671 2.4674282326096297 25.1529181985675 0 0 0
225 5 -0.15084279475095835 4.996479350581025 17.820155413969427 0 0 0
226 5 2.6185779914184457 0.10625795645865023 25.196616775527836 0 0 0
227 5 -0.09991053091686287 3.4322600452166068 22.698991410572074 0 0 0
228 5 -0.005358540735976896 3.415016229695911 15.657296489125489 0 0 0
229 5 2.817586524330524 3.330346822824729 22.567840815169077 0 0 0
230 5 2.837374444321696 3.5727373539745857 15.668289929633616 0 0 0
231 5 4.293682568169087 0.7972040129216879 22.578874567904005 0 0 0
232 5 4.268203912550338 0.798615276609808 15.716167256247378 0 0 0
233 5 -1.4992109643809428 4.280537416844726 27.328845412792372 0 0 0
234 5 -1.5417509251831898 4.114013085250786 20.507696288133967 0 0 0
235 5 1.3110214949447 4.299485341386028 27.26970410918129 0 0 0
236 5 1.5472485671585805 3.9719440070300904 20.49678615167974 0 0 0
237 5 2.8999038050320474 1.641392623398437 27.348620678135276 0 0 0
238 5 2.9929381129063573 1.427752158598501 20.32053623335419 0 0 0
239 3 1.3485579609408602 0.8711189136132178 26.177112426474608 0 0 0
240 1 1.4172249785652844 4.212910161837134 16.730302960826858 0 0 0
97 2 5.493098062807829 0.11619725829409688 14.260957791176573 0 1 0
98 2 -1.5086429211337646 5.849430945150371 4.615996117806692 0 0 0
99 2 -2.9132666117264128 6.899556012195117 9.443695716547904 0 0 0
100 2 6.954839159920276 7.7487373816012965 28.638861331383797 -1 0 -1
101 2 -1.5754298430577331 7.630526410050013 14.285574447491427 0 0 0
102 2 2.9797046237650666 0.12725366273567193 28.622148601212427 0 1 -1
103 2 -2.880975655990342 8.396807641185015 4.6846250471029265 0 0 0
104 2 0.0058943124991598615 8.356177740774024 4.76147536926911 0 0 0
105 2 1.5458720294453518 5.997568771022493 4.834010550253147 0 0 0
106 2 -4.434280438212321 9.297634187059984 9.59686467282981 0 0 0
107 2 -1.4653623989529705 9.417507613720655 9.540151958868723 0 0 0
108 2 -0.07357991499664815 6.717881066896759 9.413228212501357 0 0 0
109 4 2.8708443033527073 5.036164201230983 7.195467175016379 0 0 0
110 4 -2.8239298820024294 6.689720234553353 2.400642619835517 0 0 0
111 4 1.4587358051666302 7.481966850758948 7.25681665537397 0 0 0
112 4 -1.422699040040085 7.455958423832724 7.200003466896174 0 0 0
113 4 0.06754004131088566 4.8731002148720215 7.1332807876055355 0 0 0
114 4 -3.0854268856715734 8.333167315148039 11.938361073207213 0 0 0
115 4 -0.09812586324431391 8.30316877852783 11.92533538604344 0 0 0
116 4 1.269272433339242 5.842018419510566 11.82696710672827 0 0 0
117 4 -4.284584915771984 9.254760019655349 2.4159740103807033 0 0 0
118 4 0.08778287412431725 6.834695848210051 2.488289112518798 0 0 0
119 5 5.623271997573069 0.07944689146154486 3.5121481623171174 0 1 0
120 5 8.635713473750709 5.067865901544702 10.805132486650855 -1 0 0
121 5 -1.4709722630202104 5.859346244990523 8.138277197546435 0 0 0
122 5 -1.4473030643543414 5.968887167623878 1.4243354978644815 0 0 0
123 5 -2.727951885942511 6.73964299310847 12.985224849869876 0 0 0
124 5 -2.8261760765474544 6.787481017677666 6.113485191443933 0 0 0
125 5 1.6322126371994297 7.480525690109905 3.446094029730656 0 0 0
126 5 1.4093211695593453 7.475806215695725 10.894133338876108 0 0 0
127 5 -1.387531248245969 7.663389817989086 3.4743652515189805 0 0 0
128 5 -1.4596570190123292 7.469283198009627 10.820445498967507 0 0 0
129 5 -3.033105738450958 9.998334315981026 3.487682714369427 0 0 0
130 5 -0.263684952281555 5.108112921858649 10.864144075927834 0 0 0
131 5 -2.9821734746168627 8.434115010616607 8.366518710972077 0 0 0
132 5 -2.887621484435977 8.416871195095911 1.3248237895254902 0 0 0
133 5 -0.06467641936947634 8.33220178822473 8.235368115569075 0 0 0
134 5 -0.04488849937830284 8.574592319374586 1.335817230033616 0 0 0
135 5 1.4114196244690875 5.7990589783216855 8.24640186830401 0 0 0
136 5 1.3859409688503381 5.800470242009806 1.3836945566473797 0 0 0
137 5 -4.381473908080944 9.282392382244726 12.996372713192372 0 0 0
138 5 -4.424013868883193 9.115868050650786 6.175223588533967 0 0 0
139 5 -1.571241448755299 9.301340306786027 12.937231409581292 0 0 0
140 5 -1.335014376541422 8.973798972430092 6.164313452079739 0 0 0
141 5 0.017640861332047984 6.643247588798435 13.016147978535285 0 0 0
142 5 0.11067516920635814 6.429607123998501 5.988063533754192 0 0 0
143 3 -1.5337049827591402 5.872973879013218 11.844639726874613 0 0 0
144 1 -1.465037965134716 9.214765127237133 2.3978302612268663 0 0 0
289 2 5.468657978907828 0.13028159629409686 28.59343049077657 0 1 0
290 2 -1.5330830050337643 5.863515283150371 18.94846881740669 0 0 0
291 2 -2.9377066956264137 6.913640350195117 23.776168416147904 0 0 0
292 2 6.979279243820276 7.734653043601297 14.306388631783802 -1 0 0
293 2 -1.5998699269577326 7.644610748050013 28.618047147091424 0 0 0
294 2 3.0041447076650662 0.11316932473567194 14.289675901612425 0 1 0
295 2 -2.905415739890343 8.410891979185015 19.017097746702927 0 0 0
296 2 -0.01854577140084014 8.370262078774024 19.09394806886911 0 0 0
297 2 1.5214319455453509 6.011653109022493 19.166483249853147 0 0 0
298 2 -4.458720522112321 9.311718525059984 23.92933737242981 0 0 0
299 2 -1.4898024828529712 9.431591951720655 23.872624658468723 0 0 0
300 2 -0.09801999889664859 6.73196540489676 23.74570091210135 0 0 0
301 4 2.8464042194527064 5.050248539230983 21.52793987461638 0 0 0
302 4 -2.8483699659024295 6.703804572553353 16.733115319435516 0 0 0
303 4 1.43429572126663 7.496051188758948 21.58928935497397 0 0 0
304 4 -1.447139123940086 7.470042761832724 21.532476166496174 0 0 0
305 4 0.04309995741088565 4.8871845528720215 21.465753487205536 0 0 0
306 4 -3.1098669695715744 8.347251653148039 26.270833772807208 0 0 0
307 4 -0.12256594714431479 8.31725311652783 26.257808085643433 0 0 0
308 4 1.2448323494392421 5.856102757510566 26.159439806328265 0 0 0
309 4 -4.309024999671984 9.268844357655349 16.748446709980705 0 0 0
310 4 0.06334279022431726 6.848780186210051 16.820761812118796 0 0 0
311 5 5.59883191367307 0.09353122946154485 17.844620861917118 0 1 0
312 5 8.611273389850709 5.081950239544702 25.137605186250855 -1 0 0
313 5 -1.4954123469202114 5.873430582990526 22.470749897146433 0 0 0
314 5 -1.4717431482543415 5.982971505623878 15.756808197464482 0 0 0
315 5 -2.7523919698425114 6.75372733110847 27.31769754946987 0 0 0
316 5 -2.850616160447455 6.801565355677666 20.445957891043932 0 0 0
317 5 1.6077725532994296 7.494610028109905 17.778566729330656 0 0 0
318 5 1.3848810856593472 7.489890553695725 25.226606038476106 0 0 0
319 5 -1.4119713321459684 7.677474155989086 17.806837951118982 0 0 0
320 5 -1.484097102912329 7.483367536009629 25.1529181985675 0 0 0
321 5 -3.057545822350958 10.012418653981026 17.820155413969427 0 0 0
322 5 -0.288125036181555 5.122197259858649 25.196616775527836 0 0 0
323 5 -3.0066135585168636 8.448199348616606 22.698991410572074 0 0 0
324 5 -2.912061568335977 8.430955533095911 15.657296489125489 0 0 0
325 5 -0.08911650326947634 8.34628612622473 22.567840815169077 0 0 0
326 5 -0.06932858327830373 8.588676657374586 15.668289929633616 0 0 0
327 5 1.3869795405690866 5.8131433163216855 22.578874567904005 0 0 0
328 5 1.361500884950338 5.814554580009806 15.716167256247378 0 0 0
329 5 -4.405913991980943 9.296476720244726 27.328845412792372 0 0 0
330 5 -4.448453952783192 9.129952388650786 20.507696288133967 0 0 0
331 5 -1.5956815326552993 9.315424644786027 27.26970410918129 0 0 0
332 5 -1.3594544604414198 8.987883310430092 20.49678615167974 0 0 0
333 5 -0.0067992225679524496 6.657331926798436 27.348620678135276 0 0 0
334 5 0.0862350853063577 6.443691461998501 20.32053623335419 0 0 0
335 3 -1.558145066659141 5.887058217013218 26.177112426474608 0 0 0
336 1 -1.4894780490347155 9.228849465237133 16.730302960826858 0 0 0
49 2 8.38368488350783 5.1321365616940975 14.260957791176573 0 0 0
50 2 7.195349954766239 0.8334916417503718 4.615996117806692 0 0 0
51 2 5.790726264173588 1.8836167087951186 9.443695716547904 0 0 0
52 2 4.064252339220276 2.732798078201297 28.638861331383797 0 0 -1
53 2 7.128563032842267 2.6145871066500135 14.285574447491427 0 0 0
54 2 5.870291444465066 5.143192966135672 28.622148601212427 0 0 -1
55 2 5.823017219909659 3.380868337785016 4.6846250471029265 0 0 0
56 2 8.709887188399163 3.3402384373740244 4.76147536926911 0 0 0
57 2 10.249864905345348 0.981629467622495 4.834010550253147 0 0 0
58 2 4.269712437687678 4.281694883659985 9.59686467282981 0 0 0
59 2 7.238630476947033 4.401568310320656 9.540151958868723 0 0 0
60 2 8.630412960903357 1.701941763496759 9.413228212501357 0 0 0
61 4 -0.01974251734729347 0.020224897830981768 7.195467175016379 1 0 0
62 4 5.880062993897573 1.6737809311533547 2.400642619835517 0 0 0
63 4 -1.431851015533369 2.4660275473589475 7.25681665537397 1 0 0
64 4 7.281293835859917 2.4400191204327264 7.200003466896174 0 0 0
65 4 2.958126862010885 9.889039518272023 7.1332807876055355 0 -1 0
66 4 5.618565990228428 3.3172280117480377 11.938361073207213 0 0 0
67 4 8.605867012655686 3.28722947512783 11.92533538604344 0 0 0
68 4 9.973265309239245 0.8260791161105666 11.82696710672827 0 0 0
69 4 4.419407960128017 4.238820716255349 2.4159740103807033 0 0 0
70 4 8.791775750024323 1.8187565448100498 2.488289112518798 0 0 0
71 5 8.513858818273071 5.095386194861542 3.5121481623171174 0 0 0
72 5 5.745126653050709 0.051926598144701505 10.805132486650855 0 0 0
73 5 7.23302061287979 0.8434069415905259 8.138277197546435 0 0 0
74 5 7.25668981154566 0.9529478642238766 1.4243354978644815 0 0 0
75 5 5.976040989957489 1.7237036897084717 12.985224849869876 0 0 0
76 5 5.877816799352547 1.7715417142776666 6.113485191443933 0 0 0
77 5 -1.2583741835005722 2.4645863867099056 3.446094029730656 1 0 0
78 5 10.113314045459346 2.459866912295725 10.894133338876108 0 0 0
79 5 7.316461627654031 2.647450514589088 3.4743652515189805 0 0 0
80 5 7.2443358568876715 2.4533438946096298 10.820445498967507 0 0 0
81 5 5.670887137449043 4.9823950125810255 3.487682714369427 0 0 0
82 5 8.440307923618445 0.09217361845865021 10.864144075927834 0 0 0
83 5 5.7218194012831365 3.418175707216607 8.366518710972077 0 0 0
84 5 5.816371391464025 3.400931891695911 1.3248237895254902 0 0 0
85 5 8.639316456530526 3.316262484824729 8.235368115569075 0 0 0
86 5 8.659104376521698 3.558653015974586 1.335817230033616 0 0 0
87 5 10.115412500369088 0.7831196749216879 8.24640186830401 0 0 0
88 5 10.089933844750337 0.784530938609808 1.3836945566473797 0 0 0
89 5 4.322518967819057 4.266453078844726 12.996372713192372 0 0 0
90 5 4.279979007016811 4.099928747250786 6.175223588533967 0 0 0
91 5 7.132751427144702 4.285401003386028 12.937231409581292 0 0 0
92 5 7.368978499358579 3.9578596690300905 6.164313452079739 0 0 0
93 5 8.721633737232045 1.627308285398437 13.016147978535285 0 0 0
94 5 8.81466804510636 1.413667820598501 5.988063533754192 0 0 0
95 3 7.170287893140861 0.8570345756132178 11.844639726874613 0 0 0
96 1 7.238954910765286 4.198825823837134 2.3978302612268663 0 0 0
241 2 8.359244799607831 5.1462208996940975 28.59343049077657 0 0 0
242 2 7.170909870866236 0.8475759797503718 18.94846881740669 0 0 0
243 2 5.766286180273585 1.8977010467951185 23.776168416147904 0 0 0
244 2 4.088692423120276 2.718713740201297 14.306388631783802 0 0 0
245 2 7.104122948942267 2.6286714446500135 28.618047147091424 0 0 0
246 2 5.894731528365066 5.129108628135672 14.289675901612425 0 0 0
247 2 5.7985771360096585 3.394952675785016 19.017097746702927 0 0 0
248 2 8.685447104499158 3.3543227753740243 19.09394806886911 0 0 0
249 2 10.22542482144535 0.9957138056224952 19.166483249853147 0 0 0
250 2 4.245272353787678 4.295779221659985 23.92933737242981 0 0 0
251 2 7.214190393047029 4.415652648320656 23.872624658468723 0 0 0
252 2 8.605972877003355 1.716026101496759 23.74570091210135 0 0 0
253 4 -0.0441826012472909 0.03430923583098177 21.52793987461638 1 0 0
254 4 5.855622909997572 1.6878652691533547 16.733115319435516 0 0 0
255 4 -1.4562910994333718 2.4801118853589474 21.58928935497397 1 0 0
256 4 7.256853751959915 2.4541034584327264 21.532476166496174 0 0 0
257 4 2.933686778110884 9.903123856272023 21.465753487205536 0 -1 0
258 4 5.594125906328427 3.3313123497480377 26.270833772807208 0 0 0
259 4 8.581426928755686 3.30131381312783 26.257808085643433 0 0 0
260 4 9.948825225339242 0.8401634541105668 26.159439806328265 0 0 0
261 4 4.394967876228018 4.252905054255349 16.748446709980705 0 0 0
262 4 8.767335666124318 1.83284088281005 16.820761812118796 0 0 0
263 5 8.489418734373071 5.109470532861542 17.844620861917118 0 0 0
264 5 5.7206865691507085 0.06601093614470151 25.137605186250855 0 0 0
265 5 7.208580528979789 0.8574912795905258 22.470749897146433 0 0 0
266 5 7.23224972764566 0.9670322022238762 15.756808197464482 0 0 0
267 5 5.951600906057489 1.7377880277084716 27.31769754946987 0 0 0
268 5 5.853376715452546 1.7856260522776666 20.445957891043932 0 0 0
269 5 -1.2828142674005698 2.4786707247099056 17.778566729330656 1 0 0
270 5 10.088873961559345 2.473951250295725 25.226606038476106 0 0 0
271 5 7.29202154375403 2.6615348525890874 17.806837951118982 0 0 0
272 5 7.219895772987671 2.4674282326096297 25.1529181985675 0 0 0
273 5 5.646447053549043 4.996479350581025 17.820155413969427 0 0 0
274 5 8.415867839718445 0.10625795645865023 25.196616775527836 0 0 0
275 5 5.697379317383136 3.4322600452166068 22.698991410572074 0 0 0
276 5 5.791931307564025 3.415016229695911 15.657296489125489 0 0 0
277 5 8.614876372630528 3.330346822824729 22.567840815169077 0 0 0
278 5 8.6346642926217 3.5727373539745857 15.668289929633616 0 0 0
279 5 10.09097241646909 0.7972040129216879 22.578874567904005 0 0 0
280 5 10.065493760850337 0.798615276609808 15.716167256247378 0 0 0
281 5 4.298078883919057 4.280537416844726 27.328845412792372 0 0 0
282 5 4.255538923116811 4.114013085250786 20.507696288133967 0 0 0
283 5 7.1083113432447 4.299485341386028 27.26970410918129 0 0 0
284 5 7.34453841545858 3.9719440070300904 20.49678615167974 0 0 0
285 5 8.697193653332045 1.641392623398437 27.348620678135276 0 0 0
286 5 8.79022796120636 1.427752158598501 20.32053623335419 0 0 0
287 3 7.145847809240863 0.8711189136132178 26.177112426474608 0 0 0
288 1 7.214514826865286 4.212910161837134 16.730302960826858 0 0 0
145 2 11.29038791110783 0.11619725829409688 14.260957791176573 0 1 0
146 2 4.288646927166237 5.849430945150371 4.615996117806692 0 0 0
147 2 2.8840232365735874 6.899556012195117 9.443695716547904 0 0 0
148 2 1.157549311620278 7.7487373816012965 28.638861331383797 0 0 -1
149 2 4.2218600052422675 7.630526410050013 14.285574447491427 0 0 0
150 2 8.776994472065065 0.12725366273567193 28.622148601212427 0 1 -1
151 2 2.9163141923096583 8.396807641185015 4.6846250471029265 0 0 0
152 2 5.80318416079916 8.356177740774024 4.76147536926911 0 0 0
153 2 7.343161877745351 5.997568771022493 4.834010550253147 0 0 0
154 2 1.3630094100876782 9.297634187059984 9.59686467282981 0 0 0
155 2 4.331927449347029 9.417507613720655 9.540151958868723 0 0 0
156 2 5.723709933303353 6.717881066896759 9.413228212501357 0 0 0
157 4 -2.926445544947294 5.036164201230983 7.195467175016379 1 0 0
158 4 2.973359966297572 6.689720234553353 2.400642619835517 0 0 0
159 4 -4.338554043133368 7.481966850758948 7.25681665537397 1 0 0
160 4 4.374590808259916 7.455958423832724 7.200003466896174 0 0 0
161 4 5.864829889610885 4.8731002148720215 7.1332807876055355 0 0 0
162 4 2.7118629626284276 8.333167315148039 11.938361073207213 0 0 0
163 4 5.699163985055687 8.30316877852783 11.92533538604344 0 0 0
164 4 7.066562281639244 5.842018419510566 11.82696710672827 0 0 0
165 4 1.5127049325280169 9.254760019655349 2.4159740103807033 0 0 0
166 4 5.885072722424318 6.834695848210051 2.488289112518798 0 0 0
167 5 11.42056184587307 0.07944689146154486 3.5121481623171174 0 1 0
168 5 2.838423625450707 5.067865901544702 10.805132486650855 0 0 0
169 5 4.32631758527979 5.859346244990523 8.138277197546435 0 0 0
170 5 4.349986783945659 5.968887167623878 1.4243354978644815 0 0 0
171 5 3.0693379623574897 6.73964299310847 12.985224849869876 0 0 0
172 5 2.9711137717525444 6.787481017677666 6.113485191443933 0 0 0
173 5 -4.165077211100573 7.480525690109905 3.446094029730656 1 0 0
174 5 7.2066110178593465 7.475806215695725 10.894133338876108 0 0 0
175 5 4.409758600054031 7.663389817989086 3.4743652515189805 0 0 0
176 5 4.337632829287672 7.469283198009627 10.820445498967507 0 0 0
177 5 2.7641841098490425 9.998334315981026 3.487682714369427 0 0 0
178 5 5.533604896018446 5.108112921858649 10.864144075927834 0 0 0
179 5 2.8151163736831357 8.434115010616607 8.366518710972077 0 0 0
180 5 2.9096683638640237 8.416871195095911 1.3248237895254902 0 0 0
181 5 5.732613428930525 8.33220178822473 8.235368115569075 0 0 0
182 5 5.7524013489216985 8.574592319374586 1.335817230033616 0 0 0
183 5 7.208709472769086 5.7990589783216855 8.24640186830401 0 0 0
184 5 7.183230817150339 5.800470242009806 1.3836945566473797 0 0 0
185 5 1.4158159402190547 9.282392382244726 12.996372713192372 0 0 0
186 5 1.373275979416808 9.115868050650786 6.175223588533967 0 0 0
187 5 4.226048399544703 9.301340306786027 12.937231409581292 0 0 0
188 5 4.46227547175858 8.973798972430092 6.164313452079739 0 0 0
189 5 5.814930709632044 6.643247588798435 13.016147978535285 0 0 0
190 5 5.907965017506357 6.429607123998501 5.988063533754192 0 0 0
191 3 4.263584865540861 5.872973879013218 11.844639726874613 0 0 0
192 1 4.332251883165284 9.214765127237133 2.3978302612268663 0 0 0
337 2 11.265947827207832 0.13028159629409686 28.59343049077657 0 1 0
338 2 4.2642068432662334 5.863515283150371 18.94846881740669 0 0 0
339 2 2.8595831526735864 6.913640350195117 23.776168416147904 0 0 0
340 2 1.1819893955202772 7.734653043601297 14.306388631783802 0 0 0
341 2 4.197419921342267 7.644610748050013 28.618047147091424 0 0 0
342 2 8.801434555965065 0.11316932473567194 14.289675901612425 0 1 0
343 2 2.891874108409658 8.410891979185015 19.017097746702927 0 0 0
344 2 5.77874407689916 8.370262078774024 19.09394806886911 0 0 0
345 2 7.318721793845353 6.011653109022493 19.166483249853147 0 0 0
346 2 1.3385693261876792 9.311718525059984 23.92933737242981 0 0 0
347 2 4.307487365447029 9.431591951720655 23.872624658468723 0 0 0
348 2 5.699269849403353 6.73196540489676 23.74570091210135 0 0 0
349 4 -2.9508856288472916 5.050248539230983 21.52793987461638 1 0 0
350 4 2.948919882397572 6.703804572553353 16.733115319435516 0 0 0
351 4 -4.362994127033368 7.496051188758948 21.58928935497397 1 0 0
352 4 4.350150724359916 7.470042761832724 21.532476166496174 0 0 0
353 4 5.840389805710885 4.8871845528720215 21.465753487205536 0 0 0
354 4 2.6874228787284267 8.347251653148039 26.270833772807208 0 0 0
355 4 5.674723901155685 8.31725311652783 26.257808085643433 0 0 0
356 4 7.042122197739242 5.856102757510566 26.159439806328265 0 0 0
357 4 1.4882648486280186 9.268844357655349 16.748446709980705 0 0 0
358 4 5.8606326385243195 6.848780186210051 16.820761812118796 0 0 0
359 5 11.39612176197307 0.09353122946154485 17.844620861917118 0 1 0
360 5 2.813983541550707 5.081950239544702 25.137605186250855 0 0 0
361 5 4.30187750137979 5.873430582990526 22.470749897146433 0 0 0
362 5 4.325546700045658 5.982971505623878 15.756808197464482 0 0 0
363 5 3.0448978784574896 6.75372733110847 27.31769754946987 0 0 0
364 5 2.9466736878525444 6.801565355677666 20.445957891043932 0 0 0
365 5 -4.189517295000569 7.494610028109905 17.778566729330656 1 0 0
366 5 7.1821709339593465 7.489890553695725 25.226606038476106 0 0 0
367 5 4.38531851615403 7.677474155989086 17.806837951118982 0 0 0
368 5 4.313192745387672 7.483367536009629 25.1529181985675 0 0 0
369 5 2.739744025949044 10.012418653981026 17.820155413969427 0 0 0
370 5 5.509164812118448 5.122197259858649 25.196616775527836 0 0 0
371 5 2.7906762897831356 8.448199348616606 22.698991410572074 0 0 0
372 5 2.8852282799640236 8.430955533095911 15.657296489125489 0 0 0
373 5 5.7081733450305245 8.34628612622473 22.567840815169077 0 0 0
374 5 5.7279612650216984 8.588676657374586 15.668289929633616 0 0 0
375 5 7.184269388869088 5.8131433163216855 22.578874567904005 0 0 0
376 5 7.158790733250339 5.814554580009806 15.716167256247378 0 0 0
377 5 1.3913758563190564 9.296476720244726 27.328845412792372 0 0 0
378 5 1.3488358955168107 9.129952388650786 20.507696288133967 0 0 0
379 5 4.201608315644704 9.315424644786027 27.26970410918129 0 0 0
380 5 4.4378353878585814 8.987883310430092 20.49678615167974 0 0 0
381 5 5.790490625732047 6.657331926798436 27.348620678135276 0 0 0
382 5 5.883524933606357 6.443691461998501 20.32053623335419 0 0 0
383 3 4.239144781640861 5.887058217013218 26.177112426474608 0 0 0
384 1 4.307811799265284 9.228849465237133 16.730302960826858 0 0 0

Velocities

1 0 0 0
2 0 0 0
3 0 0 0
4 0 0 0
5 0 0 0
6 0 0 0
7 0 0 0
8 0 0 0
9 0 0 0
10 0 0 0
11 0 0 0
12 0 0 0
13 0 0 0
14 0 0 0
15 0 0 0
16 0 0 0
17 0 0 0
18 0 0 0
19 0 0 0
20 0 0 0
21 0 0 0
22 0 0 0
23 0 0 0
24 0 0 0
25 0 0 0
26 0 0 0
27 0 0 0
28 0 0 0
29 0 0 0
30 0 0 0
31 0 0 0
32 0 0 0
33 0 0 0
34 0 0 0
35 0 0 0
36 0 0 0
37 0 0 0
38 0 0 0
39 0 0 0
40 0 0 0
41 0 0 0
42 0 0 0
43 0 0 0
44 0 0 0
45 0 0 0
46 0 0 0
47 0 0 0
48 0 0 0
193 0 0 0
194 0 0 0
195 0 0 0
196 0 0 0
197 0 0 0
198 0 0 0
199 0 0 0
200 0 0 0
201 0 0 0
202 0 0 0
203 0 0 0
204 0 0 0
205 0 0 0
206 0 0 0
207 0 0 0
208 0 0 0
209 0 0 0
210 0 0 0
211 0 0 0
212 0 0 0
213 0 0 0
214 0 0 0
215 0 0 0
216 0 0 0
217 0 0 0
218 0 0 0
219 0 0 0
220 0 0 0
221 0 0 0
222 0 0 0
223 0 0 0
224 0 0 0
225 0 0 0
226 0 0 0
227 0 0 0
228 0 0 0
229 0 0 0
230 0 0 0
231 0 0 0
232 0 0 0
233 0 0 0
234 0 0 0
235 0 0 0
236 0 0 0
237 0 0 0
238 0 0 0
239 0 0 0
240 0 0 0
97 0 0 0
98 0 0 0
99 0 0 0
100 0 0 0
101 0 0 0
102 0 0 0
103 0 0 0
104 0 0 0
105 0 0 0
106 0 0 0
107 0 0 0
108 0 0 0
109 0 0 0
110 0 0 0
111 0 0 0
112 0 0 0
113 0 0 0
114 0 0 0
115 0 0 0
116 0 0 0
117 0 0 0
118 0 0 0
119 0 0 0
120 0 0 0
121 0 0 0
122 0 0 0
123 0 0 0
124 0 0 0
125 0 0 0
126 0 0 0
127 0 0 0
128 0 0 0
129 0 0 0
130 0 0 0
131 0 0 0
132 0 0 0
133 0 0 0
134 0 0 0
135 0 0 0
136 0 0 0
137 0 0 0
138 0 0 0
139 0 0 0
140 0 0 0
141 0 0 0
142 0 0 0
143 0 0 0
144 0 0 0
289 0 0 0
290 0 0 0
291 0 0 0
292 0 0 0
293 0 0 0
294 0 0 0
295 0 0 0
296 0 0 0
297 0 0 0
298 0 0 0
299 0 0 0
300 0 0 0
301 0 0 0
302 0 0 0
303 0 0 0
304 0 0 0
305 0 0 0
306 0 0 0
307 0 0 0
308 0 0 0
309 0 0 0
310 0 0 0
311 0 0 0
312 0 0 0
313 0 0 0
314 0 0 0
315 0 0 0
316 0 0 0
317 0 0 0
318 0 0 0
319 0 0 0
320 0 0 0
321 0 0 0
322 0 0 0
323 0 0 0
324 0 0 0
325 0 0 0
326 0 0 0
327 0 0 0
328 0 0 0
329 0 0 0
330 0 0 0
331 0 0 0
332 0 0 0
333 0 0 0
334 0 0 0
335 0 0 0
336 0 0 0
49 0 0 0
50 0 0 0
51 0 0 0
52 0 0 0
53 0 0 0
54 0 0 0
55 0 0 0
56 0 0 0
57 0 0 0
58 0 0 0
59 0 0 0
60 0 0 0
61 0 0 0
62 0 0 0
63 0 0 0
64 0 0 0
65 0 0 0
66 0 0 0
67 0 0 0
68 0 0 0
69 0 0 0
70 0 0 0
71 0 0 0
72 0 0 0
73 0 0 0
74 0 0 0
75 0 0 0
76 0 0 0
77 0 0 0
78 0 0 0
79 0 0 0
80 0 0 0
81 0 0 0
82 0 0 0
83 0 0 0
84 0 0 0
85 0 0 0
86 0 0 0
87 0 0 0
88 0 0 0
89 0 0 0
90 0 0 0
91 0 0 0
92 0 0 0
93 0 0 0
94 0 0 0
95 0 0 0
96 0 0 0
241 0 0 0
242 0 0 0
243 0 0 0
244 0 0 0
245 0 0 0
246 0 0 0
247 0 0 0
248 0 0 0
249 0 0 0
250 0 0 0
251 0 0 0
252 0 0 0
253 0 0 0
254 0 0 0
255 0 0 0
256 0 0 0
257 0 0 0
258 0 0 0
259 0 0 0
260 0 0 0
261 0 0 0
262 0 0 0
263 0 0 0
264 0 0 0
265 0 0 0
266 0 0 0
267 0 0 0
268 0 0 0
269 0 0 0
270 0 0 0
271 0 0 0
272 0 0 0
273 0 0 0
274 0 0 0
275 0 0 0
276 0 0 0
277 0 0 0
278 0 0 0
279 0 0 0
280 0 0 0
281 0 0 0
282 0 0 0
283 0 0 0
284 0 0 0
285 0 0 0
286 0 0 0
287 0 0 0
288 0 0 0
145 0 0 0
146 0 0 0
147 0 0 0
148 0 0 0
149 0 0 0
150 0 0 0
151 0 0 0
152 0 0 0
153 0 0 0
154 0 0 0
155 0 0 0
156 0 0 0
157 0 0 0
158 0 0 0
159 0 0 0
160 0 0 0
161 0 0 0
162 0 0 0
163 0 0 0
164 0 0 0
165 0 0 0
166 0 0 0
167 0 0 0
168 0 0 0
169 0 0 0
170 0 0 0
171 0 0 0
172 0 0 0
173 0 0 0
174 0 0 0
175 0 0 0
176 0 0 0
177 0 0 0
178 0 0 0
179 0 0 0
180 0 0 0
181 0 0 0
182 0 0 0
183 0 0 0
184 0 0 0
185 0 0 0
186 0 0 0
187 0 0 0
188 0 0 0
189 0 0 0
190 0 0 0
191 0 0 0
192 0 0 0
337 0 0 0
338 0 0 0
339 0 0 0
340 0 0 0
341 0 0 0
342 0 0 0
343 0 0 0
344 0 0 0
345 0 0 0
346 0 0 0
347 0 0 0
348 0 0 0
349 0 0 0
350 0 0 0
351 0 0 0
352 0 0 0
353 0 0 0
354 0 0 0
355 0 0 0
356 0 0 0
357 0 0 0
358 0 0 0
359 0 0 0
360 0 0 0
361 0 0 0
362 0 0 0
363 0 0 0
364 0 0 0
365 0 0 0
366 0 0 0
367 0 0 0
368 0 0 0
369 0 0 0
370 0 0 0
371 0 0 0
372 0 0 0
373 0 0 0
374 0 0 0
375 0 0 0
376 0 0 0
377 0 0 0
378 0 0 0
379 0 0 0
380 0 0 0
381 0 0 0
382 0 0 0
383 0 0 0
384 0 0 0
