ITEM: TIMESTEP
0
ITEM: NUMBER OF ATOMS
48
ITEM: BOX BOUNDS xy xz yz pp pp pp
-2.9311431115000000e+00 5.7972898483000002e+00 -2.9067030275999999e+00
0.0000000000000000e+00 5.0300236413999997e+00 -2.4440083900000003e-02
0.0000000000000000e+00 1.4332472699600000e+01 1.4084338000000002e-02
ITEM: ATOMS id type x y z
2 2 1.39806 0.833492 4.616
7 2 0.0257274 3.38087 4.68463
14 4 0.0827731 1.67378 2.40064
21 4 -1.37788 4.23882 2.41597
29 5 -1.25837 2.46459 3.44609
33 5 -0.126403 4.9824 3.48768
36 5 0.0190815 3.40093 1.32482
8 2 2.9126 3.34024 4.76148
22 4 2.99449 1.81876 2.48829
23 5 5.62327 0.0794469 3.51215
26 5 1.4594 0.952948 1.42434
31 5 1.51917 2.64745 3.47437
38 5 2.86181 3.55865 1.33582
40 5 4.29264 0.784531 1.38369
48 1 1.44167 4.19883 2.39783
3 2 -0.00656358 1.88362 9.4437
13 4 -0.0197425 0.0202249 7.19547
15 4 -1.43185 2.46603 7.25682
17 4 0.06754 4.8731 7.13328
28 5 0.080527 1.77154 6.11349
35 5 -0.0754704 3.41818 8.36652
42 5 -1.51731 4.09993 6.17522
9 2 4.45258 0.981629 4.83401
11 2 1.44134 4.40157 9.54015
12 2 2.83312 1.70194 9.41323
16 4 1.484 2.44002 7.2
25 5 1.43573 0.843407 8.13828
37 5 2.84203 3.31626 8.23537
39 5 4.31812 0.78312 8.2464
44 5 1.57169 3.95786 6.16431
46 5 3.01738 1.41367 5.98806
5 2 1.33127 2.61459 14.2856
10 2 -1.52758 4.28169 9.59686
18 4 -0.178724 3.31723 11.9384
27 5 0.178751 1.7237 12.9852
41 5 -1.47477 4.26645 12.9964
43 5 1.33546 4.2854 12.9372
47 3 1.373 0.857035 11.8446
1 2 5.4931 0.116197 14.261
4 2 4.08869 2.71871 14.3064
6 2 3.00414 0.113169 14.2897
19 4 2.80858 3.28723 11.9253
20 4 4.17598 0.826079 11.827
24 5 5.74513 0.0519266 10.8051
30 5 4.31602 2.45987 10.8941
32 5 1.44705 2.45334 10.8204
34 5 2.64302 0.0921736 10.8641
45 5 2.92434 1.62731 13.0161
ITEM: TIMESTEP
50
ITEM: NUMBER OF ATOMS
48
ITEM: BOX BOUNDS xy xz yz pp pp pp
-2.9311431115000000e+00 5.7972898483000002e+00 -2.9067030275999999e+00
0.0000000000000000e+00 5.0300236413999997e+00 -2.4440083900000003e-02
0.0000000000000000e+00 1.4332472699600000e+01 1.4084338000000002e-02
ITEM: ATOMS id type x y z
2 2 1.5708 0.855063 4.93457
7 2 0.0705242 3.3777 4.89819
14 4 0.00817971 1.728 2.40592
21 4 -1.45506 4.23493 2.38657
29 5 -1.51547 2.63927 3.35019
33 5 0.108615 5.00788 3.47212
36 5 0.131788 3.35922 1.35798
8 2 2.94015 3.38484 4.84453
22 4 2.93141 1.70368 2.37571
23 5 5.85498 0.0463363 3.38898
26 5 1.53584 0.830245 1.39325
31 5 1.55411 2.59593 3.43971
38 5 2.8684 3.43399 1.31316
40 5 4.35285 0.886803 1.3546
48 1 1.48969 4.2584 2.41797
3 2 -0.108608 1.53657 9.65149
13 4 0.0312565 -0.053589 7.16404
15 4 -1.45506 2.47172 7.14941
17 4 -0.0177685 4.99342 7.19765
28 5 0.00932901 1.64611 6.1696
35 5 -0.00747223 3.29673 8.13753
42 5 -1.45067 4.16137 6.10012
9 2 4.36966 0.727906 4.74663
11 2 1.27934 3.96589 9.5735
12 2 2.84863 1.63081 9.64234
16 4 1.48081 2.46926 7.1639
25 5 1.43304 0.786594 8.24782
37 5 2.91954 3.24339 8.1895
39 5 4.43052 0.791357 8.18565
44 5 1.44401 4.20892 6.11844
46 5 2.93088 1.65171 6.18969
5 2 1.44071 2.54715 14.3728
10 2 -1.47233 4.06763 9.44338
18 4 -0.0419716 3.36907 11.9116
27 5 -0.118382 1.67664 12.9997
41 5 -1.61891 4.26664 12.9834
43 5 1.36752 4.1575 12.9565
47 3 1.35481 0.832151 11.9309
1 2 5.8529 0.0719069 14.3534
4 2 4.3114 2.53301 14.3084
6 2 2.738 0.0136544 14.3832
19 4 2.80916 3.40279 11.9209
20 4 4.28592 0.834553 11.9525
24 5 5.71933 0.0338841 10.9055
30 5 4.24444 2.53892 10.9168
32 5 1.35278 2.46534 10.8991
34 5 2.74195 -0.0714409 10.8791
45 5 2.7073 1.65955 12.8918
ITEM: TIMESTEP
100
ITEM: NUMBER OF ATOMS
48
ITEM: BOX BOUNDS xy xz yz pp pp pp
-2.9311431115000000e+00 5.7972898483000002e+00 -2.9067030275999999e+00
0.0000000000000000e+00 5.0300236413999997e+00 -2.4440083900000003e-02
0.0000000000000000e+00 1.4332472699600000e+01 1.4084338000000002e-02
ITEM: ATOMS id type x y z
2 2 1.4486 0.814804 4.60586
7 2 0.00880548 3.30781 4.71309
14 4 0.00266648 1.78036 2.37216
21 4 -1.41191 4.2497 2.39156
29 5 -1.50245 2.58493 3.35706
33 5 0.215881 5.09407 3.36798
36 5 0.0734493 3.47391 1.39481
8 2 2.91934 3.35156 4.67478
22 4 2.82265 1.62333 2.29975
23 5 5.84092 0.00120248 3.38957
26 5 1.41687 0.859004 1.37325
31 5 1.41217 2.60498 3.37734
38 5 2.83096 3.22498 1.33051
40 5 4.42596 0.798121 1.3373
48 1 1.50485 4.21471 2.35998
3 2 0.0520055 1.55066 9.44128
13 4 0.0262855 -0.0611612 7.13622
15 4 -1.41401 2.45339 7.07245
17 4 -0.0224406 5.0907 7.16838
28 5 0.0206273 1.5835 6.08802
35 5 -0.0699007 3.25125 8.25181
42 5 -1.34567 4.22272 6.15702
9 2 4.38223 0.847671 4.8557
11 2 1.4731 4.07683 9.55784
12 2 2.83717 1.59713 9.53522
16 4 1.40004 2.51146 7.14501
25 5 1.42961 0.713182 8.26308
37 5 2.9074 3.30221 8.18451
39 5 4.30744 0.773 8.23603
44 5 1.37744 4.29166 6.22853
46 5 2.88372 1.82746 6.06992
5 2 1.38548 2.50643 14.2034
10 2 -1.57024 4.12189 9.6542
18 4 -0.0495394 3.35861 12.0019
27 5 0.0820868 1.68953 13.013
41 5 -1.37311 4.24655 12.9759
43 5 1.39798 4.18929 13.0063
47 3 1.37071 0.829622 11.987
1 2 5.74809 -0.129933 14.3377
4 2 4.37501 2.42614 14.4124
6 2 2.9311 -0.0365411 14.3379
19 4 2.79634 3.32414 11.9666
20 4 4.25697 0.88598 12.0252
24 5 5.83324 -0.0195244 11.0767
30 5 4.18079 2.50176 10.9722
32 5 1.34614 2.35202 10.8817
34 5 2.93405 0.031256 10.9957
45 5 2.81838 1.77596 13.0693
ITEM: TIMESTEP
150
ITEM: NUMBER OF ATOMS
48
ITEM: BOX BOUNDS xy xz yz pp pp pp
-2.9311431115000000e+00 5.7972898483000002e+00 -2.9067030275999999e+00
0.0000000000000000e+00 5.0300236413999997e+00 -2.4440083900000003e-02
0.0000000000000000e+00 1.4332472699600000e+01 1.4084338000000002e-02
ITEM: ATOMS id type x y z
2 2 1.41439 0.921321 4.8062
7 2 0.00717474 3.50777 4.77582
14 4 -0.0213231 1.61786 2.33
21 4 -1.43927 4.16465 2.33958
29 5 -1.34774 2.46761 3.30921
33 5 -0.0536289 5.08679 3.38168
36 5 -0.0136903 3.56808 1.30089
8 2 2.75517 3.36036 4.85224
22 4 2.97795 1.7453 2.43067
23 5 5.6578 -0.163861 3.48986
26 5 1.43829 0.840713 1.40651
31 5 1.26724 2.58748 3.33513
38 5 2.80664 3.36371 1.35581
40 5 4.42834 0.725113 1.33761
48 1 1.42423 4.17773 2.36223
3 2 -0.0478034 1.90141 9.69815
13 4 -0.0341618 0.0199278 7.16335
15 4 -1.48697 2.55515 7.19882
17 4 -0.0021926 5.01684 7.10267
28 5 0.0263827 1.66402 6.11292
35 5 -0.016706 3.37567 8.22996
42 5 -1.45682 4.07223 6.06868
9 2 4.31926 0.935125 4.66615
11 2 1.41999 4.42902 9.6244
12 2 2.98383 1.74123 9.53996
16 4 1.41066 2.50715 7.13676
25 5 1.47228 0.900772 8.08703
37 5 2.8114 3.42669 8.18004
39 5 4.23822 0.889091 8.18111
44 5 1.44413 4.08872 6.12534
46 5 2.93747 1.67226 6.06123
5 2 1.34186 2.5821 14.5738
10 2 -1.40462 4.23731 9.47123
18 4 -0.0450959 3.31843 11.9731
27 5 0.0165883 1.5971 12.9481
41 5 -1.51971 4.24848 13.0787
43 5 1.44185 4.21651 12.9849
47 3 1.47028 0.811711 12.0023
1 2 5.70389 0.112472 14.3194
4 2 4.26225 2.69548 14.3052
6 2 2.90366 0.035334 14.3175
19 4 2.88819 3.3302 12.0328
20 4 4.38145 0.806652 11.9686
24 5 5.78788 -0.0101925 10.8534
30 5 4.41266 2.55367 10.9265
32 5 1.41419 2.44906 11.0228
34 5 2.68688 0.0566862 10.897
45 5 2.848 1.50891 13.0373
ITEM: TIMESTEP
200
ITEM: NUMBER OF ATOMS
48
ITEM: BOX BOUNDS xy xz yz pp pp pp
-2.9311431115000000e+00 5.7972898483000002e+00 -2.9067030275999999e+00
0.0000000000000000e+00 5.0300236413999997e+00 -2.4440083900000003e-02
0.0000000000000000e+00 1.4332472699600000e+01 1.4084338000000002e-02
ITEM: ATOMS id type x y z
2 2 1.39746 0.857686 4.7464
7 2 -0.113472 3.25893 4.73467
14 4 0.0410331 1.58978 2.43601
21 4 -1.51947 4.18339 2.41165
29 5 -1.41962 2.52206 3.4508
33 5 -0.00550139 4.93528 3.46944
36 5 0.00669205 3.22295 1.33492
8 2 2.98267 3.36622 4.77112
22 4 2.8537 1.68088 2.40243
23 5 5.72599 -0.110364 3.45291
26 5 1.5018 0.825276 1.30903
31 5 1.45328 2.51029 3.53092
38 5 2.83793 3.45059 1.37412
40 5 4.30791 0.83927 1.44311
48 1 1.32505 4.1424 2.4093
3 2 -0.0617874 1.60204 9.35827
13 4 -0.0683813 0.0846826 7.18011
15 4 -1.54471 2.57114 7.18869
17 4 -0.0420587 5.03043 7.15429
28 5 -0.123678 1.80436 6.17623
35 5 0.0203107 3.29832 8.16317
42 5 -1.62443 4.29644 6.11928
9 2 4.37084 0.822016 4.88422
11 2 1.37122 4.10619 9.43424
12 2 2.87396 1.79336 9.54889
16 4 1.4809 2.55396 7.20381
25 5 1.43165 0.840552 8.24548
37 5 2.87398 3.39939 8.22241
39 5 4.40085 0.939201 8.13838
44 5 1.39354 4.28207 6.04978
46 5 2.82038 1.6285 6.12992
5 2 1.49637 2.56872 14.1313
10 2 -1.48536 4.26742 9.52626
18 4 0.0224591 3.35851 11.9467
27 5 0.074941 1.70439 13.0553
41 5 -1.44431 4.30486 12.9275
43 5 1.49042 4.14083 12.9847
47 3 1.4652 0.878949 11.9555
1 2 5.87124 0.0686662 14.3938
4 2 4.32129 2.46114 14.3469
6 2 2.91405 0.0264118 14.3955
19 4 2.9366 3.34568 11.8693
20 4 4.35172 0.751646 11.8533
24 5 5.90648 0.231432 10.869
30 5 4.33296 2.44558 10.9281
32 5 1.55408 2.47802 10.8994
34 5 2.96103 -0.1105 10.844
45 5 2.94365 1.50324 12.9858
ITEM: TIMESTEP
250
ITEM: NUMBER OF ATOMS
48
ITEM: BOX BOUNDS xy xz yz pp pp pp
-2.9311431115000000e+00 5.7972898483000002e+00 -2.9067030275999999e+00
0.0000000000000000e+00 5.0300236413999997e+00 -2.4440083900000003e-02
0.0000000000000000e+00 1.4332472699600000e+01 1.4084338000000002e-02
ITEM: ATOMS id type x y z
2 2 1.42149 0.707199 4.84894
7 2 0.0934722 3.42906 4.89407
14 4 -0.089484 1.68258 2.4855
21 4 -1.51598 4.09946 2.42001
29 5 -1.65615 2.43834 3.36903
33 5 0.0359468 4.83967 3.5844
36 5 0.0528352 3.3502 1.37984
8 2 2.84237 3.31335 4.76687
22 4 2.78322 1.54336 2.38851
23 5 5.6566 0.0635712 3.53031
26 5 1.33562 0.795768 1.45579
31 5 1.55356 2.52763 3.45055
38 5 2.88588 3.34361 1.29685
40 5 4.13347 0.660443 1.28633
48 1 1.47912 4.1759 2.47867
3 2 0.0239033 1.61639 9.72566
13 4 -0.0126379 0.0981392 7.19241
15 4 -1.46254 2.57109 7.1114
17 4 -0.121591 5.09502 7.23892
28 5 0.0321176 1.70782 6.07402
35 5 -0.164036 3.45579 8.2569
42 5 -1.40043 4.26444 6.13705
9 2 4.22729 0.787611 4.71332
11 2 1.45164 4.13876 9.6526
12 2 2.90488 1.52894 9.62657
16 4 1.35895 2.57686 7.15913
25 5 1.37227 0.878828 8.13153
37 5 2.86181 3.36575 8.22882
39 5 4.26182 0.846652 8.22415
44 5 1.35303 4.26693 6.28967
46 5 2.84584 1.81981 6.08568
5 2 1.5469 2.37113 14.5245
10 2 -1.49808 4.09504 9.56065
18 4 0.0446732 3.36027 11.8459
27 5 0.12931 1.65407 12.9824
41 5 -1.32693 4.15933 12.9367
43 5 1.53805 4.2062 12.8749
47 3 1.53158 0.851159 11.8061
1 2 5.83232 -0.354888 14.1942
4 2 4.54833 2.20998 14.3871
6 2 2.94146 -0.147681 14.2795
19 4 2.98368 3.38477 11.8532
20 4 4.41818 0.925091 11.9559
24 5 5.89709 0.0417859 10.8682
30 5 4.27661 2.46592 10.8442
32 5 1.46432 2.46224 10.853
34 5 2.8574 0.0134829 10.8915
45 5 2.9161 1.69388 12.9206
ITEM: TIMESTEP
300
ITEM: NUMBER OF ATOMS
48
ITEM: BOX BOUNDS xy xz yz pp pp pp
-2.9311431115000000e+00 5.7972898483000002e+00 -2.9067030275999999e+00
0.0000000000000000e+00 5.0300236413999997e+00 -2.4440083900000003e-02
0.0000000000000000e+00 1.4332472699600000e+01 1.4084338000000002e-02
ITEM: ATOMS id type x y z
2 2 1.39911 1.04097 4.68191
7 2 -0.0136975 3.33499 4.76886
14 4 -0.118751 1.64897 2.34917
21 4 -1.49318 4.09762 2.45166
29 5 -1.54652 2.42022 3.4021
33 5 -0.120201 4.89239 3.28179
36 5 0.0513911 3.28002 1.30491
8 2 2.80861 3.45104 4.90262
22 4 2.8256 1.57197 2.42533
23 5 5.68489 -0.118284 3.43944
26 5 1.27275 0.742532 1.52311
31 5 1.37571 2.51679 3.46987
38 5 2.75738 3.26258 1.37129
40 5 4.33968 0.702012 1.34619
48 1 1.42555 4.09431 2.34932
3 2 -0.0180399 1.93692 9.33285
13 4 -0.0410332 0.0418717 7.13646
15 4 -1.48533 2.55554 7.17459
17 4 -0.0233512 5.12638 7.16527
28 5 -0.0537114 1.65624 6.16918
35 5 -0.108809 3.4555 8.18842
42 5 -1.52134 4.21238 6.21082
9 2 4.37163 0.932113 4.87748
11 2 1.42093 4.44589 9.53991
12 2 2.84941 1.86802 9.44818
16 4 1.32892 2.5989 7.2
25 5 1.43516 1.04797 8.31413
37 5 2.83012 3.37695 8.17736
39 5 4.36245 0.844284 8.28273
44 5 1.34888 4.16348 6.0757
46 5 2.97861 1.65502 6.16585
5 2 1.40931 2.31245 14.2903
10 2 -1.42592 4.21777 9.46868
18 4 0.0795923 3.35975 11.887
27 5 0.138004 1.40465 13.0854
41 5 -1.3983 4.20195 12.9079
43 5 1.4459 4.25388 12.9444
47 3 1.56174 0.833409 11.9148
1 2 5.7912 0.0096691 14.4094
4 2 4.40161 2.49607 14.1974
6 2 2.98213 -0.191248 14.3183
19 4 2.90542 3.37232 11.9717
20 4 4.43809 0.888643 11.9468
24 5 5.91003 -0.0966661 10.8852
30 5 4.58308 2.6201 10.8704
32 5 1.43514 2.53414 10.9601
34 5 2.98492 0.317098 10.8671
45 5 2.86853 1.67547 13.0104
ITEM: TIMESTEP
350
ITEM: NUMBER OF ATOMS
48
ITEM: BOX BOUNDS xy xz yz pp pp pp
-2.9311431115000000e+00 5.7972898483000002e+00 -2.9067030275999999e+00
0.0000000000000000e+00 5.0300236413999997e+00 -2.4440083900000003e-02
0.0000000000000000e+00 1.4332472699600000e+01 1.4084338000000002e-02
ITEM: ATOMS id type x y z
2 2 1.44839 0.709724 4.93308
7 2 -0.167046 3.38236 4.76667
14 4 0.00486976 1.47973 2.3672
21 4 -1.57053 4.12548 2.28309
29 5 -1.51641 2.5089 3.43777
33 5 0.0591472 5.06827 3.43308
36 5 -0.15071 3.2971 1.37723
8 2 2.81523 3.27903 4.67244
22 4 2.88322 1.65468 2.39501
23 5 5.66177 -0.24942 3.32565
26 5 1.59516 0.722165 1.2873
31 5 1.22933 2.50414 3.32232
38 5 2.72208 3.32841 1.31196
40 5 4.38293 0.696573 1.36691
48 1 1.24527 4.08503 2.3197
3 2 0.0410034 1.71286 9.80329
13 4 -0.0465267 0.0395955 7.17614
15 4 -1.52203 2.60763 7.19576
17 4 0.00345653 5.05318 7.09406
28 5 -0.0552488 1.90249 6.20998
35 5 -0.0328719 3.35166 8.32156
42 5 -1.59361 4.34155 6.04954
9 2 4.26305 0.715606 4.65499
11 2 1.52276 4.15531 9.61391
12 2 3.11115 1.72003 9.64567
16 4 1.48075 2.57541 7.13725
25 5 1.48733 0.889589 8.11964
37 5 2.82682 3.40833 8.17949
39 5 4.34331 0.928054 8.09112
44 5 1.37163 4.18951 6.12381
46 5 2.82799 1.7395 6.07041
5 2 1.41459 2.65613 14.4447
10 2 -1.40167 4.44574 9.59427
18 4 0.0500517 3.38478 12.0338
27 5 0.0708265 1.6501 12.9601
41 5 -1.33121 4.3173 13.0361
43 5 1.59973 4.2012 13.0645
47 3 1.44773 0.872661 12.0871
1 2 5.713 0.0857611 14.3036
4 2 4.25332 2.66055 14.399
6 2 2.96039 0.167004 14.3594
19 4 2.98741 3.3391 12.0036
20 4 4.40632 0.794105 11.8818
24 5 5.98065 0.107154 10.9034
30 5 4.36034 2.53863 11.057
32 5 1.43213 2.49797 11.0013
34 5 2.98793 0.117959 10.8205
45 5 2.89359 1.69834 13.0007
ITEM: TIMESTEP
400
ITEM: NUMBER OF ATOMS
48
ITEM: BOX BOUNDS xy xz yz pp pp pp
-2.9311431115000000e+00 5.7972898483000002e+00 -2.9067030275999999e+00
0.0000000000000000e+00 5.0300236413999997e+00 -2.4440083900000003e-02
0.0000000000000000e+00 1.4332472699600000e+01 1.4084338000000002e-02
ITEM: ATOMS id type x y z
2 2 1.35302 0.922635 4.48613
7 2 0.121598 3.33466 4.69816
14 4 -0.0763844 1.62754 2.373
21 4 -1.51145 4.1249 2.35556
29 5 -1.45282 2.45254 3.25683
33 5 -0.0222292 4.84904 3.46987
36 5 -0.0192953 3.32673 1.40397
8 2 2.85948 3.32608 4.71917
22 4 2.8187 1.63331 2.29057
23 5 5.67726 -0.0146685 3.42639
26 5 1.3554 0.845593 1.36471
31 5 1.46516 2.50873 3.44508
38 5 2.67459 3.32123 1.23308
40 5 4.21752 0.683938 1.28293
48 1 1.38833 4.1474 2.42223
3 2 0.0409062 1.64903 9.40361
13 4 -0.0329739 0.143126 7.14925
15 4 -1.44286 2.55292 7.13369
17 4 -0.0698943 5.03476 7.1645
28 5 0.00192115 1.57912 5.94702
35 5 0.0925991 3.35742 8.18871
42 5 -1.24564 4.13733 6.03453
9 2 4.30487 0.875215 4.92243
11 2 1.47258 4.04549 9.64466
12 2 2.86712 1.59823 9.60157
16 4 1.45792 2.53335 7.15194
25 5 1.41411 0.802651 8.14238
37 5 2.89864 3.43885 8.21249
39 5 4.17005 0.954066 8.23068
44 5 1.49599 4.32081 6.20311
46 5 2.8992 1.79987 6.11547
5 2 1.24296 2.60243 14.297
10 2 -1.34182 4.00335 9.58952
18 4 0.00989525 3.32722 12.0208
27 5 -0.0299297 1.79192 13.1019
41 5 -1.48188 4.28946 13.1025
43 5 1.46419 4.16258 12.9889
47 3 1.42507 0.901174 11.9867
1 2 5.84402 -0.0629139 14.4529
4 2 4.31948 2.45092 14.3327
6 2 2.91145 0.0660301 14.3057
19 4 3.03297 3.41751 11.9466
20 4 4.39655 0.870683 12.0321
24 5 5.91192 0.0970945 11.0735
30 5 4.376 2.42635 10.9022
32 5 1.54746 2.37686 10.9312
34 5 2.7401 -0.084802 10.9493
45 5 2.89062 1.6101 12.9669
ITEM: TIMESTEP
450
ITEM: NUMBER OF ATOMS
48
ITEM: BOX BOUNDS xy xz yz pp pp pp
-2.9311431115000000e+00 5.7972898483000002e+00 -2.9067030275999999e+00
0.0000000000000000e+00 5.0300236413999997e+00 -2.4440083900000003e-02
0.0000000000000000e+00 1.4332472699600000e+01 1.4084338000000002e-02
ITEM: ATOMS id type x y z
2 2 1.60577 0.702774 4.97987
7 2 0.0274937 3.298 4.91081
14 4 -0.112567 1.78818 2.38215
21 4 -1.45343 4.19099 2.53082
29 5 -1.5557 2.49522 3.45944
33 5 -0.0519542 4.94498 3.39372
36 5 0.209663 3.26328 1.28519
8 2 2.98921 3.52187 4.9042
22 4 2.75635 1.58642 2.408
23 5 5.70175 0.160852 3.47948
26 5 1.29384 0.818579 1.45517
31 5 1.54948 2.59194 3.48771
38 5 2.94448 3.35314 1.33897
40 5 4.18392 0.846789 1.27083
48 1 1.52323 4.21983 2.36031
3 2 -0.145874 1.65434 9.68925
13 4 -0.00587764 0.022304 7.14872
15 4 -1.36023 2.46133 7.10195
17 4 0.0238289 5.04662 7.21061
28 5 0.0941501 1.5332 6.14895
35 5 -0.0549253 3.22598 8.1447
42 5 -1.33371 4.05587 6.12593
9 2 4.29522 0.901728 4.54491
11 2 1.34885 4.33276 9.56939
12 2 2.75282 1.61163 9.51352
16 4 1.43416 2.56483 7.17314
25 5 1.38422 0.922982 8.17629
37 5 2.92348 3.49224 8.22697
39 5 4.24393 0.930396 8.30999
44 5 1.48536 4.1782 6.07001
46 5 2.94398 1.65492 6.1688
5 2 1.53752 2.44176 14.3016
10 2 -1.62522 4.14638 9.48164
18 4 -0.0171191 3.35498 11.8766
27 5 0.327515 1.61985 12.9294
41 5 -1.58439 4.23047 12.8952
43 5 1.34436 4.20253 12.9167
47 3 1.49775 0.827926 11.9235
1 2 5.65336 0.0454749 14.2045
4 2 4.40057 2.52364 14.3728
6 2 2.70054 -0.233287 14.3352
19 4 2.79905 3.31296 11.9442
20 4 4.26761 0.863514 12.0008
24 5 5.68068 -0.0325803 10.7731
30 5 4.42165 2.55023 10.9333
32 5 1.51846 2.53568 10.8302
34 5 2.82157 -0.0294641 10.8406
45 5 2.9199 1.68171 13.0212
ITEM: TIMESTEP
500
ITEM: NUMBER OF ATOMS
48
ITEM: BOX BOUNDS xy xz yz pp pp pp
-2.9311431115000000e+00 5.7972898483000002e+00 -2.9067030275999999e+00
0.0000000000000000e+00 5.0300236413999997e+00 -2.4440083900000003e-02
0.0000000000000000e+00 1.4332472699600000e+01 1.4084338000000002e-02
ITEM: ATOMS id type x y z
2 2 1.48697 0.830159 4.79252
7 2 0.0230217 3.36601 4.65255
14 4 0.0676304 1.68644 2.42441
21 4 -1.50124 4.26765 2.39977
29 5 -1.45172 2.63916 3.39521
33 5 0.0704089 5.0687 3.45831
36 5 0.0154043 3.45287 1.32149
8 2 2.77834 3.21335 4.72161
22 4 2.9727 1.79339 2.51139
23 5 5.68703 0.00478092 3.4937
26 5 1.56004 0.854282 1.48587
31 5 1.39723 2.64416 3.43416
38 5 2.89222 3.45139 1.4246
40 5 4.41118 0.872165 1.42593
48 1 1.3914 4.24968 2.3845
3 2 -0.0984373 1.84078 9.4007
13 4 0.0544095 -0.0709523 7.22285
15 4 -1.45588 2.50397 7.23776
17 4 0.0297451 4.94599 7.13771
28 5 0.0477477 1.88196 6.16316
35 5 -0.0514106 3.45725 8.39991
42 5 -1.4756 4.20088 6.16146
9 2 4.46769 0.682847 5.12395
11 2 1.41907 4.09389 9.49505
12 2 2.92152 1.80355 9.54551
16 4 1.44891 2.47109 7.18363
25 5 1.53185 0.786997 8.10309
37 5 2.92797 3.16405 8.28365
39 5 4.51556 0.664547 8.16714
44 5 1.44019 4.13811 6.22439
46 5 2.97004 1.57041 5.96764
5 2 1.4307 2.49923 14.4259
10 2 -1.35042 4.45891 9.54775
18 4 -0.053649 3.32234 11.8875
27 5 -0.239683 1.72097 12.9753
41 5 -1.36629 4.18848 12.9848
43 5 1.41229 4.30496 12.9514
47 3 1.35315 0.758146 11.8523
1 2 5.61415 0.0225211 14.3384
4 2 4.34419 2.61114 14.4106
6 2 3.01706 0.0820406 14.2914
19 4 2.75115 3.3544 11.924
20 4 4.35031 0.790012 11.7845
24 5 5.84608 0.0183527 10.8914
30 5 4.12843 2.56153 10.8833
32 5 1.2393 2.35062 10.8238
34 5 2.82246 -0.0217546 10.7919
45 5 2.62114 1.60885 12.8853
ITEM: TIMESTEP
550
ITEM: NUMBER OF ATOMS
48
ITEM: BOX BOUNDS xy xz yz pp pp pp
-2.9311431115000000e+00 5.7972898483000002e+00 -2.9067030275999999e+00
0.0000000000000000e+00 5.0300236413999997e+00 -2.4440083900000003e-02
0.0000000000000000e+00 1.4332472699600000e+01 1.4084338000000002e-02
ITEM: ATOMS id type x y z
2 2 1.34181 0.91056 4.73307
7 2 -0.0488816 3.42218 4.95922
14 4 0.127049 1.7503 2.38729
21 4 -1.44301 4.33965 2.36249
29 5 -1.24554 2.52205 3.36212
33 5 0.069394 5.14851 3.44311
36 5 0.0634118 3.55545 1.30461
8 2 3.01908 3.27564 4.87211
22 4 3.03508 1.87017 2.31404
23 5 5.80298 -0.206089 3.43399
26 5 1.52184 1.07935 1.27728
31 5 1.51194 2.5681 3.42851
38 5 2.71775 3.4985 1.37744
40 5 4.49077 0.813868 1.50711
48 1 1.39042 4.23144 2.49456
3 2 0.0354506 1.36808 9.62406
13 4 0.0575701 -0.0841638 7.22017
15 4 -1.49777 2.4853 7.20015
17 4 0.0412918 4.96244 7.19287
28 5 -0.0475008 1.71005 6.09122
35 5 -0.0312935 3.42314 8.08972
42 5 -1.53567 4.19566 6.02539
9 2 4.40641 0.924841 4.67137
11 2 1.49425 4.08101 9.62748
12 2 2.83187 1.43144 9.54881
16 4 1.46435 2.39722 7.1438
25 5 1.43076 0.754523 8.32209
37 5 2.86803 3.07569 8.25073
39 5 4.45984 0.836401 8.18452
44 5 1.61377 4.08912 6.19931
46 5 2.9972 1.57192 6.19963
5 2 1.31721 2.76484 14.3125
10 2 -1.57767 3.77273 9.57934
18 4 -0.147293 3.33613 11.9793
27 5 -0.140972 1.4843 12.928
41 5 -1.48718 4.37197 13.0594
43 5 1.37988 4.12867 12.8571
47 3 1.29777 0.864563 11.9134
1 2 5.92456 0.111893 14.3704
4 2 4.23793 2.6795 14.1369
6 2 2.82554 0.205057 14.3455
19 4 2.84371 3.2907 11.8818
20 4 4.18172 0.85611 11.9272
24 5 6.00355 -0.21358 10.8183
30 5 4.24085 2.41178 10.8817
32 5 1.13256 2.36271 10.9021
34 5 2.80995 0.0151218 10.9117
45 5 2.63135 1.81796 12.9944
ITEM: TIMESTEP
600
ITEM: NUMBER OF ATOMS
48
ITEM: BOX BOUNDS xy xz yz pp pp pp
-2.9311431115000000e+00 5.7972898483000002e+00 -2.9067030275999999e+00
0.0000000000000000e+00 5.0300236413999997e+00 -2.4440083900000003e-02
0.0000000000000000e+00 1.4332472699600000e+01 1.4084338000000002e-02
ITEM: ATOMS id type x y z
2 2 1.68351 0.678952 4.73194
7 2 0.216856 3.35016 4.67515
14 4 -9.31253e-05 1.80897 2.34609
21 4 -1.34242 4.28181 2.41836
29 5 -1.46004 2.69678 3.3129
33 5 0.124152 5.10797 3.37076
36 5 0.15483 3.55504 1.39543
8 2 2.85938 3.60849 4.68436
22 4 2.91515 1.68937 2.34459
23 5 5.84618 0.132029 3.4326
26 5 1.50951 0.919589 1.40086
31 5 1.4959 2.73443 3.29215
38 5 2.97615 3.49861 1.2725
40 5 4.41827 0.939324 1.22202
48 1 1.61655 4.33319 2.33215
3 2 -0.0922884 1.53904 9.50888
13 4 -0.055844 -0.0724435 7.13536
15 4 -1.37825 2.37961 7.07097
17 4 0.0325138 4.99267 7.18126
28 5 0.0840366 1.52735 6.01776
35 5 -0.0136294 3.07924 8.26034
42 5 -1.29591 4.06278 6.30507
9 2 4.39862 0.876036 4.78542
11 2 1.38826 3.99763 9.53838
12 2 2.81488 1.65722 9.51131
16 4 1.44214 2.41733 7.17377
25 5 1.49354 0.756812 8.19961
37 5 2.72831 3.33003 8.14564
39 5 4.24314 0.75078 8.29175
44 5 1.32356 4.15657 6.10813
46 5 2.84773 1.73856 6.08873
5 2 1.48149 2.72061 14.3498
10 2 -1.43463 4.09011 9.47611
18 4 -0.153229 3.33101 11.9138
27 5 0.0270707 1.65584 12.9823
41 5 -1.47307 4.21602 12.9559
43 5 1.3574 4.06126 13.0631
47 3 1.29017 0.844098 12.0138
1 2 5.69205 0.094537 14.4017
4 2 4.21503 2.59234 14.4021
6 2 2.79137 0.0169992 14.3353
19 4 2.80233 3.30286 11.9571
20 4 4.18806 0.801632 12.1163
24 5 5.74067 -0.100278 10.9077
30 5 4.31609 2.3614 11.0446
32 5 1.32901 2.48689 10.9263
34 5 2.67949 0.145819 10.9884
45 5 2.68753 1.77315 13.1055
ITEM: TIMESTEP
650
ITEM: NUMBER OF ATOMS
48
ITEM: BOX BOUNDS xy xz yz pp pp pp
-2.9311431115000000e+00 5.7972898483000002e+00 -2.9067030275999999e+00
0.0000000000000000e+00 5.0300236413999997e+00 -2.4440083900000003e-02
0.0000000000000000e+00 1.4332472699600000e+01 1.4084338000000002e-02
ITEM: ATOMS id type x y z
2 2 1.59402 0.824587 4.85227
7 2 -0.023083 3.29383 4.76032
14 4 0.0305165 1.84424 2.38637
21 4 -1.34831 4.22992 2.35874
29 5 -1.43434 2.59248 3.45162
33 5 0.171025 4.95166 3.41234
36 5 0.132634 3.45952 1.2587
8 2 2.9312 3.16257 4.7826
22 4 2.90575 1.78014 2.41472
23 5 5.84741 0.217193 3.36862
26 5 1.54 0.866256 1.40378
31 5 1.54064 2.67826 3.40038
38 5 3.06868 3.48494 1.32942
40 5 4.26322 1.02523 1.35009
48 1 1.5397 4.29767 2.29856
3 2 -0.257993 1.72398 9.78952
13 4 0.00839124 -0.0968645 7.0989
15 4 -1.41694 2.43774 7.16627
17 4 -0.133494 4.90498 7.12198
28 5 0.167016 1.45644 6.10682
35 5 -0.0630187 3.15162 8.14153
42 5 -1.42748 4.07127 6.03251
9 2 4.34669 0.82339 4.69754
11 2 1.39071 4.22962 9.54963
12 2 2.87246 1.79583 9.59193
16 4 1.44516 2.49525 7.12515
25 5 1.602 0.88406 8.15301
37 5 2.88012 3.47088 8.24423
39 5 4.26903 0.695849 8.19769
44 5 1.2901 4.07148 6.11531
46 5 2.95004 1.80193 6.03791
5 2 1.2967 2.2991 14.4478
10 2 -1.51201 4.36897 9.59082
18 4 -0.0361031 3.32967 11.993
27 5 -0.20304 1.74352 13.0576
41 5 -1.59458 4.11276 13.0632
43 5 1.3885 4.21929 13.0334
47 3 1.37595 0.781303 11.9647
1 2 5.79597 -0.130688 14.2664
4 2 4.44045 2.53983 14.3523
6 2 2.90451 -0.0202465 14.3634
19 4 2.72126 3.32621 12.0772
20 4 4.24329 0.876194 11.9546
24 5 5.79178 0.184935 10.9094
30 5 4.15742 2.52598 10.9574
32 5 1.38403 2.37168 11.0061
34 5 2.85731 -0.0796535 10.9126
45 5 2.76501 1.39579 13.0152
ITEM: TIMESTEP
700
ITEM: NUMBER OF ATOMS
48
ITEM: BOX BOUNDS xy xz yz pp pp pp
-2.9311431115000000e+00 5.7972898483000002e+00 -2.9067030275999999e+00
0.0000000000000000e+00 5.0300236413999997e+00 -2.4440083900000003e-02
0.0000000000000000e+00 1.4332472699600000e+01 1.4084338000000002e-02
ITEM: ATOMS id type x y z
2 2 1.25468 0.817723 4.60389
7 2 0.00752491 3.35965 4.81734
14 4 0.108947 1.66833 2.39967
21 4 -1.46513 4.27568 2.35872
29 5 -1.33812 2.48958 3.36937
33 5 0.0134447 5.10301 3.48724
36 5 0.108138 3.32566 1.34181
8 2 2.93978 3.4603 4.75164
22 4 2.99776 1.7944 2.39126
23 5 5.79924 -0.0451647 3.50082
26 5 1.50841 0.941726 1.3523
31 5 1.57651 2.59685 3.53023
38 5 2.80962 3.45014 1.32845
40 5 4.453 0.763002 1.41339
48 1 1.37018 4.22692 2.49138
3 2 0.132397 1.77344 9.36644
13 4 -0.0016392 0.00030975 7.17533
15 4 -1.55526 2.49775 7.15986
17 4 0.0299138 4.9605 7.14758
28 5 -0.0752353 1.76594 6.11724
35 5 -0.043615 3.31367 8.19433
42 5 -1.61916 4.18725 6.08823
9 2 4.43865 0.730042 4.85501
11 2 1.43261 4.2546 9.61482
12 2 2.67218 1.53272 9.51284
16 4 1.4841 2.49044 7.17774
25 5 1.34943 0.772603 8.20039
37 5 2.81326 3.23901 8.33006
39 5 4.39608 0.863835 8.10603
44 5 1.54773 4.11144 6.03862
46 5 2.88859 1.54448 6.16071
5 2 1.45625 2.66665 14.2196
10 2 -1.62447 4.04716 9.59744
18 4 -0.0859606 3.32766 12.0458
27 5 0.139948 1.56164 12.9528
41 5 -1.62268 4.23254 12.9935
43 5 1.35323 4.2554 12.9242
47 3 1.41787 0.765823 11.8852
1 2 5.62673 0.169316 14.3077
4 2 4.12908 2.50742 14.3607
6 2 2.96503 0.0465209 14.3961
19 4 2.85781 3.33774 11.939
20 4 4.30296 0.844893 11.8492
24 5 5.66577 0.15829 10.8172
30 5 4.24155 2.56258 10.925
32 5 1.48596 2.51493 10.9031
34 5 2.75363 -0.0751786 10.899
45 5 2.83904 1.57895 13.0193
ITEM: TIMESTEP
750
ITEM: NUMBER OF ATOMS
48
ITEM: BOX BOUNDS xy xz yz pp pp pp
-2.9311431115000000e+00 5.7972898483000002e+00 -2.9067030275999999e+00
0.0000000000000000e+00 5.0300236413999997e+00 -2.4440083900000003e-02
0.0000000000000000e+00 1.4332472699600000e+01 1.4084338000000002e-02
ITEM: ATOMS id type x y z
2 2 1.61482 0.841147 4.86162
7 2 0.0215896 3.38139 4.71924
14 4 0.00305599 1.60221 2.4142
21 4 -1.49676 4.18867 2.44674
29 5 -1.44565 2.54224 3.37035
33 5 0.0808569 5.07129 3.53208
36 5 -0.0681172 3.50797 1.4024
8 2 2.90966 3.32182 4.88173
22 4 2.94852 1.62539 2.40025
23 5 5.70691 -0.0789922 3.37881
26 5 1.47202 0.840375 1.37309
31 5 1.29349 2.5127 3.39735
38 5 2.78607 3.30314 1.43608
40 5 4.37695 0.70303 1.33948
48 1 1.47067 4.17054 2.393
3 2 -0.161414 1.50331 9.70557
13 4 -0.0375653 0.0961741 7.21255
15 4 -1.49137 2.55619 7.19733
17 4 0.04647 5.08117 7.22012
28 5 -0.0847076 1.81989 6.0143
35 5 0.147431 3.44571 8.33024
42 5 -1.3783 4.24022 6.22579
9 2 4.28827 0.997628 4.75586
11 2 1.45433 4.05525 9.48158
12 2 3.08815 1.72028 9.52241
16 4 1.33408 2.43773 7.18468
25 5 1.38137 0.801701 8.14946
37 5 2.82555 3.15572 8.16158
39 5 4.29499 0.868538 8.27741
44 5 1.45114 4.24823 6.19305
46 5 2.80989 1.58476 6.12512
5 2 1.35367 2.63253 14.4663
10 2 -1.38899 4.16029 9.41406
18 4 -0.0270307 3.36825 11.8194
27 5 0.0963815 1.73096 13.0436
41 5 -1.49141 4.31328 12.9836
43 5 1.35082 4.08277 12.937
47 3 1.39016 0.946137 11.8787
1 2 5.9405 0.077272 14.3684
4 2 4.26726 2.68864 14.2578
6 2 2.80397 -0.046691 14.2785
19 4 2.89047 3.35118 11.8242
20 4 4.34801 0.767797 11.9926
24 5 5.90939 -0.0780645 10.8997
30 5 4.46345 2.40846 10.822
32 5 1.47607 2.451 10.8088
34 5 2.72278 -0.0107881 10.9164
45 5 2.83196 1.80179 12.8767
ITEM: TIMESTEP
800
ITEM: NUMBER OF ATOMS
48
ITEM: BOX BOUNDS xy xz yz pp pp pp
-2.9311431115000000e+00 5.7972898483000002e+00 -2.9067030275999999e+00
0.0000000000000000e+00 5.0300236413999997e+00 -2.4440083900000003e-02
0.0000000000000000e+00 1.4332472699600000e+01 1.4084338000000002e-02
ITEM: ATOMS id type x y z
2 2 1.29683 0.792426 4.66774
7 2 -0.00283661 3.35369 4.92021
14 4 -0.131545 1.76839 2.36659
21 4 -1.42048 4.05361 2.40531
29 5 -1.5816 2.40906 3.35873
33 5 0.0794087 4.86124 3.32037
36 5 0.0445223 3.36136 1.25944
8 2 2.78426 3.31692 4.81536
22 4 2.75965 1.57664 2.38526
23 5 5.77032 -0.253443 3.56475
26 5 1.29393 0.767433 1.54351
31 5 1.35637 2.52482 3.34874
38 5 2.86205 3.23672 1.33419
40 5 4.33525 0.72617 1.3227
48 1 1.46194 4.07992 2.32833
3 2 0.109383 1.79062 9.43023
13 4 -0.0133543 -0.0170688 7.15743
15 4 -1.41266 2.57593 7.17908
17 4 -0.105335 5.10919 7.19743
28 5 0.043947 1.59051 6.1444
35 5 -0.118983 3.3802 8.18381
42 5 -1.50989 4.2197 6.1359
9 2 4.40542 0.646871 4.81406
11 2 1.54064 4.23976 9.65526
12 2 2.78284 1.74219 9.54499
16 4 1.42307 2.61365 7.17323
25 5 1.44737 0.932341 8.29538
37 5 3.01863 3.54271 8.22951
39 5 4.39759 0.933152 8.19077
44 5 1.3188 4.21621 6.18419
46 5 2.84265 1.92357 6.26432
5 2 1.45504 2.44941 14.1699
10 2 -1.3656 4.31791 9.67424
18 4 0.00867604 3.3845 11.8986
27 5 -0.0400676 1.63249 12.8955
41 5 -1.35766 4.25726 12.9143
43 5 1.57035 4.18068 12.933
47 3 1.4808 0.838307 11.9402
1 2 5.68988 -0.173907 14.3229
4 2 4.45832 2.5641 14.2724
6 2 3.0783 0.0774827 14.3342
19 4 2.93264 3.35844 11.9758
20 4 4.33817 0.858652 11.9343
24 5 5.89368 0.0133989 10.9206
30 5 4.33847 2.55155 11.0301
32 5 1.38436 2.48361 10.908
34 5 2.98981 0.235003 10.8446
45 5 2.84345 1.57769 13.0775
ITEM: TIMESTEP
850
ITEM: NUMBER OF ATOMS
48
ITEM: BOX BOUNDS xy xz yz pp pp pp
-2.9311431115000000e+00 5.7972898483000002e+00 -2.9067030275999999e+00
0.0000000000000000e+00 5.0300236413999997e+00 -2.4440083900000003e-02
0.0000000000000000e+00 1.4332472699600000e+01 1.4084338000000002e-02
ITEM: ATOMS id type x y z
2 2 1.36887 0.703585 4.71349
7 2 -0.126991 3.23707 4.67485
14 4 -0.0628177 1.5837 2.33469
21 4 -1.56035 4.04191 2.3012
29 5 -1.49444 2.36239 3.40693
33 5 -0.139858 4.86696 3.30079