(written by ASE)

60 atoms
5 atom types

0.0      14.214500427200001  xlo xhi
0.0      2.4620236530999997  ylo yhi
0.0           14.1456003189  zlo zhi
    -1.4214500189000001                       0                       0  xy xz yz

Atoms # atomic

     1   2    -0.13325449354843413    0.040865358793282638   -0.012532684995179273
     2   2      1.6245870462913086     0.87376705108303443       4.680215050579867
     3   2     0.34004876493904357      1.7335729583095263      9.3492587988908991
     4   2      1.4715953113165592       2.653866884651265     0.12020533005141359
     5   2      4.2066176975192304      1.0387135012157747      4.6224357760495174
     6   2      2.9297970852443664      1.5520579153985976      9.6786131084948366
     7   2      4.1273009200034911      2.4434830319651675    0.065180540393224198
     8   2      7.2205736281578705     0.80074723864076991      4.5768738655368413
     9   2      5.7571824796267785      1.3738742863255755      9.4449929151281093
    10   2      8.4720924039225061    -0.22305305405701251    -0.20062493165578232
    11   2      9.9529093196472616      0.7103600821499837       4.532803599720574
    12   2      8.7288706917888259      1.2242283905401363      9.5312357443613589
    13   2      11.416250831841101    0.028037375213643887     0.12155618405119992
    14   2         12.771557355989     0.78193442506156163      4.8705006730228257
    15   2      11.563515800420062       1.482354311592774      9.4291324656454645
    16   4   -0.063922866428485783      1.6078286757701095      2.4900547534811821
    17   4    0.046358633069245633    0.022883415273101664       7.052180424908479
    18   4      1.4308714754271352     0.87073544864162389      12.043210271911413
    19   4      5.6004449770117253      1.6407805688102239      2.2785540254714212
    20   4      4.4243579949104506      2.5111355810701452      7.1602969337775333
    21   4      7.0192782130112645     0.72017504416648936      11.738048146179159
    22   4      11.385084044556995      1.5667548616995712      2.2870301756867732
    23   4      11.290574128739648    0.070727231331890072      6.9240616390195884
    24   4      12.857107329205897      0.8959650029018279      11.612074212003284
    25   5    0.010678186646340671   -0.014201715984306165      3.4367883873934826
    26   5      1.9827090893713766      1.0391729858129637      8.1936716235993341
    27   5     0.20904326072415252      1.7953125726035395      13.197231513376725
    28   5      12.684982686190148      2.4571839134575133      10.606316691086112
    29   5      1.3001079451635404     0.77055391644658811      1.6004795360609445
    30   5    0.051806145382063962      1.7061483056489535      6.1061295863080192
    31   5      1.5868513724801465      2.5546376024366975      3.5322654691786908
    32   5      4.5075497072975184     0.89087076960181644      8.0620003066391401
    33   5      3.0983542754661717      1.8305667447892202      12.883612960747397
    34   5      2.6433307001442894   -0.034552812184921726       10.99246455619264
    35   5      4.1003320752726582     0.78429542439762068      1.4016723374261078
    36   5      2.8240606079111643      1.5991411483819276      6.1019404549544447
    37   5      4.2296300726124958      2.4778585098888151      3.3434856388026799
    38   5      7.3002362916285186     0.91823348330002241      8.0818294093069305
    39   5      5.6436952521165686      1.5675792610527997      12.780462658225021
    40   5      3.9566116734058134      2.2615568415544365      10.809449578936796
    41   5       6.924967378567457     0.76167159400277351      1.2894924316417118
    42   5      5.7095507262555039      1.6395237045428324      6.0560650362344761
    43   5      8.6733707250984526    0.082676083390562469      3.2922890627453616
    44   5      9.9571031014036731     0.94667212083624941        7.89628525635037
    45   5      8.7328344118499466      1.8108446800143918      12.918848672820925
    46   5      7.0617106948825672      2.4027351479881194      10.908578299970245
    47   5      9.5829201655403118     0.57714454145907557      1.2069747237649298
    48   5      8.3149642539886575      1.5262220963731961       5.989952997889489
    49   5      11.326838133885053   -0.095377659468315446      3.1626993443923652
    50   5      12.902551321101569     0.85444311226573422      7.9918913586039082
    51   5      11.481678377380884      1.7359775230948169      12.603619914861133
    52   5      9.6912479946160417      2.3548845347582503      10.750491399031555
    53   5      12.587591477195282     0.64036603921828106      1.2233632613359655
    54   5      11.089897647875446       1.577654928781308      5.8753238606990816
    55   1      2.8201333307722209       1.639307038222656      2.4177539891730291
    56   1      4.1988660349256905     0.78487564013343769       11.85804269355493
    57   1      7.1059831551839236      2.4774658050312706      7.0167736333631137
    58   3      3.0382616747592732    0.055377999835937518      7.1228700535724387
    59   3      8.4485132099415594      1.5888263559607667      2.2119254036121987
    60   3      9.9395186110193876     0.86674442035391974      11.829075973976082
