LAMMPS data file via write_data, version 29 Aug 2024, timestep = 0, units = metal

480 atoms
5 atom types

0 28.4290008544 xlo xhi
0 4.924047306199999 ylo yhi
0 28.2912006378 zlo zhi
-2.8429000378000002 0 0 xy xz yz

Masses

1 58.9332
2 6.941
3 54.938
4 58.6934
5 15.999

Atoms # atomic

1 2 28.295746360851574 0.04086535879328264 28.27866795280482 -1 0 -1
2 2 1.6245870462913086 0.8737670510830344 4.680215050579867 0 0 0
3 2 0.34004876493904335 1.7335729583095263 9.349258798890899 0 0 0
4 2 1.4715953113165599 2.653866884651265 0.1202053300514136 0 0 0
5 2 4.20661769751923 1.0387135012157747 4.622435776049517 0 0 0
6 2 2.9297970852443678 1.5520579153985976 9.678613108494837 0 0 0
7 2 4.127300920003491 2.4434830319651675 0.0651805403932242 0 0 0
8 2 7.220573628157871 0.80074723864077 4.576873865536841 0 0 0
9 2 5.7571824796267785 1.3738742863255755 9.44499291512811 0 0 0
10 2 5.629192366122505 4.700994252142987 28.090575706144218 0 -1 -1
11 2 9.952909319647262 0.7103600821499837 4.532803599720574 0 0 0
12 2 8.728870691788826 1.2242283905401363 9.531235744361359 0 0 0
13 2 11.416250831841106 0.028037375213643887 0.12155618405119992 0 0 0
14 2 12.771557355989 0.7819344250615617 4.870500673022826 0 0 0
15 2 11.563515800420067 1.482354311592774 9.429132465645464 0 0 0
16 4 -0.06392286642848577 1.6078286757701097 2.490054753481182 0 0 0
17 4 0.04635863306924563 0.022883415273101664 7.052180424908479 0 0 0
18 4 1.4308714754271352 0.870735448641624 12.043210271911413 0 0 0
19 4 5.600444977011725 1.640780568810224 2.278554025471421 0 0 0
20 4 4.4243579949104515 2.5111355810701452 7.160296933777533 0 0 0
21 4 7.019278213011266 0.7201750441664894 11.738048146179159 0 0 0
22 4 11.385084044556997 1.5667548616995712 2.2870301756867732 0 0 0
23 4 11.290574128739648 0.07072723133189007 6.924061639019588 0 0 0
24 4 12.857107329205903 0.8959650029018279 11.612074212003284 0 0 0
25 5 -2.83222185115366 4.909845590215694 3.4367883873934826 0 -1 0
26 5 1.9827090893713768 1.0391729858129637 8.193671623599334 0 0 0
27 5 0.20904326072415302 1.7953125726035397 13.197231513376725 0 0 0
28 5 12.684982686190153 2.4571839134575133 10.606316691086112 0 0 0
29 5 1.3001079451635402 0.7705539164465882 1.6004795360609445 0 0 0
30 5 0.05180614538206396 1.7061483056489535 6.106129586308019 0 0 0
31 5 1.5868513724801474 2.5546376024366975 3.5322654691786908 0 0 0
32 5 4.507549707297521 0.8908707696018164 8.06200030663914 0 0 0
33 5 3.0983542754661717 1.8305667447892204 12.883612960747397 0 0 0
34 5 -0.19956933765571128 4.889494494015078 10.99246455619264 0 -1 0
35 5 4.100332075272658 0.7842954243976207 1.4016723374261078 0 0 0
36 5 2.8240606079111643 1.5991411483819278 6.101940454954445 0 0 0
37 5 4.229630072612495 2.477858509888815 3.34348563880268 0 0 0
38 5 7.300236291628518 0.9182334833000224 8.08182940930693 0 0 0
39 5 5.643695252116569 1.5675792610527997 12.780462658225021 0 0 0
40 5 3.9566116734058143 2.2615568415544365 10.809449578936796 0 0 0
41 5 6.924967378567457 0.7616715940027736 1.2894924316417118 0 0 0
42 5 5.709550726255504 1.6395237045428324 6.056065036234476 0 0 0
43 5 8.673370725098453 0.08267608339056247 3.2922890627453616 0 0 0
44 5 9.957103101403675 0.9466721208362494 7.89628525635037 0 0 0
45 5 8.732834411849947 1.8108446800143918 12.918848672820925 0 0 0
46 5 7.061710694882566 2.4027351479881194 10.908578299970245 0 0 0
47 5 9.582920165540312 0.5771445414590756 1.2069747237649298 0 0 0
48 5 8.31496425398866 1.526222096373196 5.989952997889489 0 0 0
49 5 8.483938096085053 4.828669646731684 3.162699344392365 0 -1 0
50 5 12.90255132110157 0.8544431122657343 7.991891358603908 0 0 0
51 5 11.481678377380884 1.735977523094817 12.603619914861133 0 0 0
52 5 9.691247994616042 2.3548845347582503 10.750491399031555 0 0 0
53 5 12.587591477195284 0.6403660392182812 1.2233632613359655 0 0 0
54 5 11.089897647875453 1.577654928781308 5.875323860699082 0 0 0
55 1 2.8201333307722205 1.639307038222656 2.417753989173029 0 0 0
56 1 4.19886603492569 0.7848756401334377 11.85804269355493 0 0 0
57 1 7.105983155183924 2.4774658050312706 7.016773633363114 0 0 0
58 3 3.0382616747592732 0.05537799983593752 7.122870053572439 0 0 0
59 3 8.448513209941558 1.5888263559607667 2.2119254036121987 0 0 0
60 3 9.939518611019388 0.8667444203539197 11.829075973976082 0 0 0
241 2 28.295746360851574 0.04086535879328264 14.13306763390482 -1 0 0
242 2 1.6245870462913086 0.8737670510830344 18.825815369479866 0 0 0
243 2 0.34004876493904335 1.7335729583095263 23.4948591177909 0 0 0
244 2 1.4715953113165599 2.653866884651265 14.265805648951416 0 0 0
245 2 4.20661769751923 1.0387135012157747 18.768036094949515 0 0 0
246 2 2.9297970852443678 1.5520579153985976 23.824213427394838 0 0 0
247 2 4.127300920003491 2.4434830319651675 14.210780859293225 0 0 0
248 2 7.220573628157871 0.80074723864077 18.72247418443684 0 0 0
249 2 5.7571824796267785 1.3738742863255755 23.59059323402811 0 0 0
250 2 5.629192366122505 4.700994252142987 13.944975387244217 0 -1 0
251 2 9.952909319647262 0.7103600821499837 18.678403918620575 0 0 0
252 2 8.728870691788826 1.2242283905401363 23.67683606326136 0 0 0
253 2 11.416250831841106 0.028037375213643887 14.267156502951199 0 0 0
254 2 12.771557355989 0.7819344250615617 19.016100991922826 0 0 0
255 2 11.563515800420067 1.482354311592774 23.574732784545464 0 0 0
256 4 -0.06392286642848577 1.6078286757701097 16.635655072381184 0 0 0
257 4 0.04635863306924563 0.022883415273101664 21.19778074380848 0 0 0
258 4 1.4308714754271352 0.870735448641624 26.188810590811414 0 0 0
259 4 5.600444977011725 1.640780568810224 16.42415434437142 0 0 0
260 4 4.4243579949104515 2.5111355810701452 21.305897252677532 0 0 0
261 4 7.019278213011266 0.7201750441664894 25.88364846507916 0 0 0
262 4 11.385084044556997 1.5667548616995712 16.432630494586775 0 0 0
263 4 11.290574128739648 0.07072723133189007 21.06966195791959 0 0 0
264 4 12.857107329205903 0.8959650029018279 25.757674530903284 0 0 0
265 5 -2.83222185115366 4.909845590215694 17.582388706293482 0 -1 0
266 5 1.9827090893713768 1.0391729858129637 22.339271942499334 0 0 0
267 5 0.20904326072415302 1.7953125726035397 27.342831832276723 0 0 0
268 5 12.684982686190153 2.4571839134575133 24.751917009986112 0 0 0
269 5 1.3001079451635402 0.7705539164465882 15.746079854960945 0 0 0
270 5 0.05180614538206396 1.7061483056489535 20.25172990520802 0 0 0
271 5 1.5868513724801474 2.5546376024366975 17.67786578807869 0 0 0
272 5 4.507549707297521 0.8908707696018164 22.20760062553914 0 0 0
273 5 3.0983542754661717 1.8305667447892204 27.029213279647397 0 0 0
274 5 -0.19956933765571128 4.889494494015078 25.13806487509264 0 -1 0
275 5 4.100332075272658 0.7842954243976207 15.547272656326108 0 0 0
276 5 2.8240606079111643 1.5991411483819278 20.247540773854446 0 0 0
277 5 4.229630072612495 2.477858509888815 17.48908595770268 0 0 0
278 5 7.300236291628518 0.9182334833000224 22.22742972820693 0 0 0
279 5 5.643695252116569 1.5675792610527997 26.92606297712502 0 0 0
280 5 3.9566116734058143 2.2615568415544365 24.955049897836794 0 0 0
281 5 6.924967378567457 0.7616715940027736 15.435092750541711 0 0 0
282 5 5.709550726255504 1.6395237045428324 20.201665355134477 0 0 0
283 5 8.673370725098453 0.08267608339056247 17.437889381645363 0 0 0
284 5 9.957103101403675 0.9466721208362494 22.04188557525037 0 0 0
285 5 8.732834411849947 1.8108446800143918 27.064448991720923 0 0 0
286 5 7.061710694882566 2.4027351479881194 25.054178618870246 0 0 0
287 5 9.582920165540312 0.5771445414590756 15.35257504266493 0 0 0
288 5 8.31496425398866 1.526222096373196 20.13555331678949 0 0 0
289 5 8.483938096085053 4.828669646731684 17.308299663292367 0 -1 0
290 5 12.90255132110157 0.8544431122657343 22.13749167750391 0 0 0
291 5 11.481678377380884 1.735977523094817 26.749220233761132 0 0 0
292 5 9.691247994616042 2.3548845347582503 24.896091717931554 0 0 0
293 5 12.587591477195284 0.6403660392182812 15.368963580235965 0 0 0
294 5 11.089897647875453 1.577654928781308 20.02092417959908 0 0 0
295 1 2.8201333307722205 1.639307038222656 16.56335430807303 0 0 0
296 1 4.19886603492569 0.7848756401334377 26.00364301245493 0 0 0
297 1 7.105983155183924 2.4774658050312706 21.162373952263113 0 0 0
298 3 3.0382616747592732 0.05537799983593752 21.26847037247244 0 0 0
299 3 8.448513209941558 1.5888263559607667 16.3575257225122 0 0 0
300 3 9.939518611019388 0.8667444203539197 25.974676292876083 0 0 0
121 2 26.87429634195157 2.5028890118932825 28.27866795280482 -1 0 -1
122 2 0.20313702739130912 3.335790704183034 4.680215050579867 0 0 0
123 2 -1.0814012539609568 4.195596611409526 9.349258798890899 0 0 0
124 2 2.89304533021656 0.19184323155126487 0.1202053300514136 0 1 0
125 2 2.7851676786192305 3.500737154315775 4.622435776049517 0 0 0
126 2 1.5083470663443674 4.0140815684985975 9.678613108494837 0 0 0
127 2 2.7058509011034912 4.905506685065167 0.0651805403932242 0 0 0
128 2 5.7991236092578715 3.26277089174077 4.576873865536841 0 0 0
129 2 4.33573246072678 3.835897939425575 9.44499291512811 0 0 0
130 2 7.050642385022506 2.2389705990429873 28.090575706144218 0 0 -1
131 2 8.531459300747262 3.1723837352499835 4.532803599720574 0 0 0
132 2 7.307420672888826 3.686252043640136 9.531235744361359 0 0 0
133 2 9.994800812941106 2.4900610283136437 0.12155618405119992 0 0 0
134 2 11.350107337089 3.2439580781615613 4.870500673022826 0 0 0
135 2 10.142065781520063 3.9443779646927744 9.429132465645464 0 0 0
136 4 -1.485372885328486 4.069852328870109 2.490054753481182 0 0 0
137 4 -1.3750913858307545 2.484907068373101 7.052180424908479 0 0 0
138 4 0.009421456527135108 3.3327591017416243 12.043210271911413 0 0 0
139 4 4.178994958111725 4.102804221910223 2.278554025471421 0 0 0
140 4 5.845808013810453 0.04911192797014572 7.160296933777533 0 1 0
141 4 5.597828194111266 3.1821986972664895 11.738048146179159 0 0 0
142 4 9.963634025656997 4.028778514799571 2.2870301756867732 0 0 0
143 4 9.869124109839651 2.5327508844318896 6.924061639019588 0 0 0
144 4 11.4356573103059 3.3579886560018277 11.612074212003284 0 0 0
145 5 -1.41077183225366 2.4478219371156937 3.4367883873934826 0 0 0
146 5 0.5612590704713765 3.5011966389129636 8.193671623599334 0 0 0
147 5 -1.212406758175847 4.25733622570354 13.197231513376725 0 0 0
148 5 11.263532667290153 4.919207566557513 10.606316691086112 0 0 0
149 5 -0.12134207373646033 3.2325775695465877 1.6004795360609445 0 0 0
150 5 -1.3696438735179362 4.168171958748953 6.106129586308019 0 0 0
151 5 3.0083013913801477 0.09261394933669713 3.5322654691786908 0 1 0
152 5 3.0860996883975194 3.3528944227018163 8.06200030663914 0 0 0
153 5 1.6769042565661736 4.29259039788922 12.883612960747397 0 0 0
154 5 1.2218806812442888 2.427470840915078 10.99246455619264 0 0 0
155 5 2.6788820563726583 3.2463190774976205 1.4016723374261078 0 0 0
156 5 1.4026105890111644 4.061164801481928 6.101940454954445 0 0 0
157 5 5.651080091512495 0.01583485678881549 3.34348563880268 0 1 0
158 5 5.878786272728518 3.3802571364000222 8.08182940930693 0 0 0
159 5 4.22224523321657 4.029602914152799 12.780462658225021 0 0 0
160 5 2.5351616545058144 4.723580494654437 10.809449578936796 0 0 0
161 5 5.503517359667459 3.223695247102773 1.2894924316417118 0 0 0
162 5 4.288100707355504 4.101547357642832 6.056065036234476 0 0 0
163 5 7.251920706198453 2.5446997364905624 3.2922890627453616 0 0 0
164 5 8.535653082503675 3.408695773936249 7.89628525635037 0 0 0
165 5 7.311384392949947 4.272868333114392 12.918848672820925 0 0 0
166 5 5.640260675982566 4.864758801088119 10.908578299970245 0 0 0
167 5 8.161470146640312 3.039168194559075 1.2069747237649298 0 0 0
168 5 6.893514235088659 3.9882457494731955 5.989952997889489 0 0 0
169 5 9.905388114985053 2.366645993631684 3.162699344392365 0 0 0
170 5 11.48110130220157 3.316466765365735 7.991891358603908 0 0 0
171 5 10.060228358480888 4.198001176194817 12.603619914861133 0 0 0
172 5 8.26979797571604 4.81690818785825 10.750491399031555 0 0 0
173 5 11.166141458295284 3.102389692318281 1.2233632613359655 0 0 0
174 5 9.66844762897545 4.039678581881308 5.875323860699082 0 0 0
175 1 1.3986833118722202 4.101330691322656 2.417753989173029 0 0 0
176 1 2.7774160160256898 3.2468992932334375 11.85804269355493 0 0 0
177 1 8.527433174083926 0.015442151931270338 7.016773633363114 0 1 0
178 3 1.6168116558592733 2.5174016529359373 7.122870053572439 0 0 0
179 3 7.027063191041558 4.050850009060767 2.2119254036121987 0 0 0
180 3 8.518068592119386 3.3287680734539196 11.829075973976082 0 0 0
361 2 26.87429634195157 2.5028890118932825 14.13306763390482 -1 0 0
362 2 0.20313702739130912 3.335790704183034 18.825815369479866 0 0 0
363 2 -1.0814012539609568 4.195596611409526 23.4948591177909 0 0 0
364 2 2.89304533021656 0.19184323155126487 14.265805648951416 0 1 0
365 2 2.7851676786192305 3.500737154315775 18.768036094949515 0 0 0
366 2 1.5083470663443674 4.0140815684985975 23.824213427394838 0 0 0
367 2 2.7058509011034912 4.905506685065167 14.210780859293225 0 0 0
368 2 5.7991236092578715 3.26277089174077 18.72247418443684 0 0 0
369 2 4.33573246072678 3.835897939425575 23.59059323402811 0 0 0
370 2 7.050642385022506 2.2389705990429873 13.944975387244217 0 0 0
371 2 8.531459300747262 3.1723837352499835 18.678403918620575 0 0 0
372 2 7.307420672888826 3.686252043640136 23.67683606326136 0 0 0
373 2 9.994800812941106 2.4900610283136437 14.267156502951199 0 0 0
374 2 11.350107337089 3.2439580781615613 19.016100991922826 0 0 0
375 2 10.142065781520063 3.9443779646927744 23.574732784545464 0 0 0
376 4 -1.485372885328486 4.069852328870109 16.635655072381184 0 0 0
377 4 -1.3750913858307545 2.484907068373101 21.19778074380848 0 0 0
378 4 0.009421456527135108 3.3327591017416243 26.188810590811414 0 0 0
379 4 4.178994958111725 4.102804221910223 16.42415434437142 0 0 0
380 4 5.845808013810453 0.04911192797014572 21.305897252677532 0 1 0
381 4 5.597828194111266 3.1821986972664895 25.88364846507916 0 0 0
382 4 9.963634025656997 4.028778514799571 16.432630494586775 0 0 0
383 4 9.869124109839651 2.5327508844318896 21.06966195791959 0 0 0
384 4 11.4356573103059 3.3579886560018277 25.757674530903284 0 0 0
385 5 -1.41077183225366 2.4478219371156937 17.582388706293482 0 0 0
386 5 0.5612590704713765 3.5011966389129636 22.339271942499334 0 0 0
387 5 -1.212406758175847 4.25733622570354 27.342831832276723 0 0 0
388 5 11.263532667290153 4.919207566557513 24.751917009986112 0 0 0
389 5 -0.12134207373646033 3.2325775695465877 15.746079854960945 0 0 0
390 5 -1.3696438735179362 4.168171958748953 20.25172990520802 0 0 0
391 5 3.0083013913801477 0.09261394933669713 17.67786578807869 0 1 0
392 5 3.0860996883975194 3.3528944227018163 22.20760062553914 0 0 0
393 5 1.6769042565661736 4.29259039788922 27.029213279647397 0 0 0
394 5 1.2218806812442888 2.427470840915078 25.13806487509264 0 0 0
395 5 2.6788820563726583 3.2463190774976205 15.547272656326108 0 0 0
396 5 1.4026105890111644 4.061164801481928 20.247540773854446 0 0 0
397 5 5.651080091512495 0.01583485678881549 17.48908595770268 0 1 0
398 5 5.878786272728518 3.3802571364000222 22.22742972820693 0 0 0
399 5 4.22224523321657 4.029602914152799 26.92606297712502 0 0 0
400 5 2.5351616545058144 4.723580494654437 24.955049897836794 0 0 0
401 5 5.503517359667459 3.223695247102773 15.435092750541711 0 0 0
402 5 4.288100707355504 4.101547357642832 20.201665355134477 0 0 0
403 5 7.251920706198453 2.5446997364905624 17.437889381645363 0 0 0
404 5 8.535653082503675 3.408695773936249 22.04188557525037 0 0 0
405 5 7.311384392949947 4.272868333114392 27.064448991720923 0 0 0
406 5 5.640260675982566 4.864758801088119 25.054178618870246 0 0 0
407 5 8.161470146640312 3.039168194559075 15.35257504266493 0 0 0
408 5 6.893514235088659 3.9882457494731955 20.13555331678949 0 0 0
409 5 9.905388114985053 2.366645993631684 17.308299663292367 0 0 0
410 5 11.48110130220157 3.316466765365735 22.13749167750391 0 0 0
411 5 10.060228358480888 4.198001176194817 26.749220233761132 0 0 0
412 5 8.26979797571604 4.81690818785825 24.896091717931554 0 0 0
413 5 11.166141458295284 3.102389692318281 15.368963580235965 0 0 0
414 5 9.66844762897545 4.039678581881308 20.02092417959908 0 0 0
415 1 1.3986833118722202 4.101330691322656 16.56335430807303 0 0 0
416 1 2.7774160160256898 3.2468992932334375 26.00364301245493 0 0 0
417 1 8.527433174083926 0.015442151931270338 21.162373952263113 0 1 0
418 3 1.6168116558592733 2.5174016529359373 21.26847037247244 0 0 0
419 3 7.027063191041558 4.050850009060767 16.3575257225122 0 0 0
420 3 8.518068592119386 3.3287680734539196 25.974676292876083 0 0 0
61 2 14.081245933651568 0.04086535879328264 28.27866795280482 0 0 -1
62 2 15.839087473491308 0.8737670510830344 4.680215050579867 0 0 0
63 2 14.554549192139044 1.7335729583095263 9.349258798890899 0 0 0
64 2 15.686095738516554 2.653866884651265 0.1202053300514136 0 0 0
65 2 18.421118124719232 1.0387135012157747 4.622435776049517 0 0 0
66 2 17.14429751244437 1.5520579153985976 9.678613108494837 0 0 0
67 2 18.341801347203496 2.4434830319651675 0.0651805403932242 0 0 0
68 2 21.435074055357873 0.80074723864077 4.576873865536841 0 0 0
69 2 19.971682906826782 1.3738742863255755 9.44499291512811 0 0 0
70 2 19.843692793322507 4.700994252142987 28.090575706144218 0 -1 -1
71 2 24.16740974684727 0.7103600821499837 4.532803599720574 0 0 0
72 2 22.94337111898883 1.2242283905401363 9.531235744361359 0 0 0
73 2 25.630751259041105 0.028037375213643887 0.12155618405119992 0 0 0
74 2 26.986057783189008 0.7819344250615617 4.870500673022826 0 0 0
75 2 25.77801622762007 1.482354311592774 9.429132465645464 0 0 0
76 4 14.150577560771517 1.6078286757701097 2.490054753481182 0 0 0
77 4 14.260859060269249 0.022883415273101664 7.052180424908479 0 0 0
78 4 15.645371902627144 0.870735448641624 12.043210271911413 0 0 0
79 4 19.814945404211734 1.640780568810224 2.278554025471421 0 0 0
80 4 18.638858422110452 2.5111355810701452 7.160296933777533 0 0 0
81 4 21.233778640211273 0.7201750441664894 11.738048146179159 0 0 0
82 4 25.599584471757005 1.5667548616995712 2.2870301756867732 0 0 0
83 4 25.50507455593965 0.07072723133189007 6.924061639019588 0 0 0
84 4 27.0716077564059 0.8959650029018279 11.612074212003284 0 0 0
85 5 11.382278576046343 4.909845590215694 3.4367883873934826 0 -1 0
86 5 16.19720951657137 1.0391729858129637 8.193671623599334 0 0 0
87 5 14.423543687924154 1.7953125726035397 13.197231513376725 0 0 0
88 5 26.89948311339015 2.4571839134575133 10.606316691086112 0 0 0
89 5 15.514608372363544 0.7705539164465882 1.6004795360609445 0 0 0
90 5 14.26630657258207 1.7061483056489535 6.106129586308019 0 0 0
91 5 15.801351799680152 2.5546376024366975 3.5322654691786908 0 0 0
92 5 18.722050134497522 0.8908707696018164 8.06200030663914 0 0 0
93 5 17.312854702666172 1.8305667447892204 12.883612960747397 0 0 0
94 5 14.014931089544294 4.889494494015078 10.99246455619264 0 -1 0
95 5 18.31483250247266 0.7842954243976207 1.4016723374261078 0 0 0
96 5 17.038561035111165 1.5991411483819278 6.101940454954445 0 0 0
97 5 18.444130499812502 2.477858509888815 3.34348563880268 0 0 0
98 5 21.514736718828523 0.9182334833000224 8.08182940930693 0 0 0
99 5 19.85819567931657 1.5675792610527997 12.780462658225021 0 0 0
100 5 18.17111210060582 2.2615568415544365 10.809449578936796 0 0 0
101 5 21.13946780576746 0.7616715940027736 1.2894924316417118 0 0 0
102 5 19.924051153455512 1.6395237045428324 6.056065036234476 0 0 0
103 5 22.88787115229846 0.08267608339056247 3.2922890627453616 0 0 0
104 5 24.171603528603676 0.9466721208362494 7.89628525635037 0 0 0
105 5 22.94733483904995 1.8108446800143918 12.918848672820925 0 0 0
106 5 21.27621112208257 2.4027351479881194 10.908578299970245 0 0 0
107 5 23.79742059274032 0.5771445414590756 1.2069747237649298 0 0 0
108 5 22.52946468118866 1.526222096373196 5.989952997889489 0 0 0
109 5 22.69843852328506 4.828669646731684 3.162699344392365 0 -1 0
110 5 27.11705174830157 0.8544431122657343 7.991891358603908 0 0 0
111 5 25.696178804580885 1.735977523094817 12.603619914861133 0 0 0
112 5 23.905748421816043 2.3548845347582503 10.750491399031555 0 0 0
113 5 26.802091904395283 0.6403660392182812 1.2233632613359655 0 0 0
114 5 25.304398075075447 1.577654928781308 5.875323860699082 0 0 0
115 1 17.034633757972223 1.639307038222656 2.417753989173029 0 0 0
116 1 18.413366462125698 0.7848756401334377 11.85804269355493 0 0 0
117 1 21.32048358238393 2.4774658050312706 7.016773633363114 0 0 0
118 3 17.252762101959274 0.05537799983593752 7.122870053572439 0 0 0
119 3 22.66301363714156 1.5888263559607667 2.2119254036121987 0 0 0
120 3 24.15401903821939 0.8667444203539197 11.829075973976082 0 0 0
301 2 14.081245933651568 0.04086535879328264 14.13306763390482 0 0 0
302 2 15.839087473491308 0.8737670510830344 18.825815369479866 0 0 0
303 2 14.554549192139044 1.7335729583095263 23.4948591177909 0 0 0
304 2 15.686095738516554 2.653866884651265 14.265805648951416 0 0 0
305 2 18.421118124719232 1.0387135012157747 18.768036094949515 0 0 0
306 2 17.14429751244437 1.5520579153985976 23.824213427394838 0 0 0
307 2 18.341801347203496 2.4434830319651675 14.210780859293225 0 0 0
308 2 21.435074055357873 0.80074723864077 18.72247418443684 0 0 0
309 2 19.971682906826782 1.3738742863255755 23.59059323402811 0 0 0
310 2 19.843692793322507 4.700994252142987 13.944975387244217 0 -1 0
311 2 24.16740974684727 0.7103600821499837 18.678403918620575 0 0 0
312 2 22.94337111898883 1.2242283905401363 23.67683606326136 0 0 0
313 2 25.630751259041105 0.028037375213643887 14.267156502951199 0 0 0
314 2 26.986057783189008 0.7819344250615617 19.016100991922826 0 0 0
315 2 25.77801622762007 1.482354311592774 23.574732784545464 0 0 0
316 4 14.150577560771517 1.6078286757701097 16.635655072381184 0 0 0
317 4 14.260859060269249 0.022883415273101664 21.19778074380848 0 0 0
318 4 15.645371902627144 0.870735448641624 26.188810590811414 0 0 0
319 4 19.814945404211734 1.640780568810224 16.42415434437142 0 0 0
320 4 18.638858422110452 2.5111355810701452 21.305897252677532 0 0 0
321 4 21.233778640211273 0.7201750441664894 25.88364846507916 0 0 0
322 4 25.599584471757005 1.5667548616995712 16.432630494586775 0 0 0
323 4 25.50507455593965 0.07072723133189007 21.06966195791959 0 0 0
324 4 27.0716077564059 0.8959650029018279 25.757674530903284 0 0 0
325 5 11.382278576046343 4.909845590215694 17.582388706293482 0 -1 0
326 5 16.19720951657137 1.0391729858129637 22.339271942499334 0 0 0
327 5 14.423543687924154 1.7953125726035397 27.342831832276723 0 0 0
328 5 26.89948311339015 2.4571839134575133 24.751917009986112 0 0 0
329 5 15.514608372363544 0.7705539164465882 15.746079854960945 0 0 0
330 5 14.26630657258207 1.7061483056489535 20.25172990520802 0 0 0
331 5 15.801351799680152 2.5546376024366975 17.67786578807869 0 0 0
332 5 18.722050134497522 0.8908707696018164 22.20760062553914 0 0 0
333 5 17.312854702666172 1.8305667447892204 27.029213279647397 0 0 0
334 5 14.014931089544294 4.889494494015078 25.13806487509264 0 -1 0
335 5 18.31483250247266 0.7842954243976207 15.547272656326108 0 0 0
336 5 17.038561035111165 1.5991411483819278 20.247540773854446 0 0 0
337 5 18.444130499812502 2.477858509888815 17.48908595770268 0 0 0
338 5 21.514736718828523 0.9182334833000224 22.22742972820693 0 0 0
339 5 19.85819567931657 1.5675792610527997 26.92606297712502 0 0 0
340 5 18.17111210060582 2.2615568415544365 24.955049897836794 0 0 0
341 5 21.13946780576746 0.7616715940027736 15.435092750541711 0 0 0
342 5 19.924051153455512 1.6395237045428324 20.201665355134477 0 0 0
343 5 22.88787115229846 0.08267608339056247 17.437889381645363 0 0 0
344 5 24.171603528603676 0.9466721208362494 22.04188557525037 0 0 0
345 5 22.94733483904995 1.8108446800143918 27.064448991720923 0 0 0
346 5 21.27621112208257 2.4027351479881194 25.054178618870246 0 0 0
347 5 23.79742059274032 0.5771445414590756 15.35257504266493 0 0 0
348 5 22.52946468118866 1.526222096373196 20.13555331678949 0 0 0
349 5 22.69843852328506 4.828669646731684 17.308299663292367 0 -1 0
350 5 27.11705174830157 0.8544431122657343 22.13749167750391 0 0 0
351 5 25.696178804580885 1.735977523094817 26.749220233761132 0 0 0
352 5 23.905748421816043 2.3548845347582503 24.896091717931554 0 0 0
353 5 26.802091904395283 0.6403660392182812 15.368963580235965 0 0 0
354 5 25.304398075075447 1.577654928781308 20.02092417959908 0 0 0
355 1 17.034633757972223 1.639307038222656 16.56335430807303 0 0 0
356 1 18.413366462125698 0.7848756401334377 26.00364301245493 0 0 0
357 1 21.32048358238393 2.4774658050312706 21.162373952263113 0 0 0
358 3 17.252762101959274 0.05537799983593752 21.26847037247244 0 0 0
359 3 22.66301363714156 1.5888263559607667 16.3575257225122 0 0 0
360 3 24.15401903821939 0.8667444203539197 25.974676292876083 0 0 0
181 2 12.659795914751568 2.5028890118932825 28.27866795280482 0 0 -1
182 2 14.417637454591315 3.335790704183034 4.680215050579867 0 0 0
183 2 13.133099173239044 4.195596611409526 9.349258798890899 0 0 0
184 2 17.107545757416567 0.19184323155126487 0.1202053300514136 0 1 0
185 2 16.99966810581924 3.500737154315775 4.622435776049517 0 0 0
186 2 15.722847493544368 4.0140815684985975 9.678613108494837 0 0 0
187 2 16.920351328303497 4.905506685065167 0.0651805403932242 0 0 0
188 2 20.013624036457873 3.26277089174077 4.576873865536841 0 0 0
189 2 18.550232887926782 3.835897939425575 9.44499291512811 0 0 0
190 2 21.265142812222514 2.2389705990429873 28.090575706144218 0 0 -1
191 2 22.745959727947273 3.1723837352499835 4.532803599720574 0 0 0
192 2 21.521921100088832 3.686252043640136 9.531235744361359 0 0 0
193 2 24.209301240141098 2.4900610283136437 0.12155618405119992 0 0 0
194 2 25.564607764289008 3.2439580781615613 4.870500673022826 0 0 0
195 2 24.35656620872007 3.9443779646927744 9.429132465645464 0 0 0
196 4 12.729127541871517 4.069852328870109 2.490054753481182 0 0 0
197 4 12.83940904136925 2.484907068373101 7.052180424908479 0 0 0
198 4 14.223921883727137 3.3327591017416243 12.043210271911413 0 0 0
199 4 18.393495385311727 4.102804221910223 2.278554025471421 0 0 0
200 4 20.060308441010456 0.04911192797014572 7.160296933777533 0 1 0
201 4 19.812328621311266 3.1821986972664895 11.738048146179159 0 0 0
202 4 24.178134452856998 4.028778514799571 2.2870301756867732 0 0 0
203 4 24.083624537039658 2.5327508844318896 6.924061639019588 0 0 0
204 4 25.650157737505907 3.3579886560018277 11.612074212003284 0 0 0
205 5 12.803728594946342 2.4478219371156937 3.4367883873934826 0 0 0
206 5 14.775759497671379 3.5011966389129636 8.193671623599334 0 0 0
207 5 13.002093669024152 4.25733622570354 13.197231513376725 0 0 0
208 5 25.47803309449015 4.919207566557513 10.606316691086112 0 0 0
209 5 14.093158353463544 3.2325775695465877 1.6004795360609445 0 0 0
210 5 12.844856553682071 4.168171958748953 6.106129586308019 0 0 0
211 5 17.222801818580148 0.09261394933669713 3.5322654691786908 0 1 0
212 5 17.300600115597526 3.3528944227018163 8.06200030663914 0 0 0
213 5 15.891404683766172 4.29259039788922 12.883612960747397 0 0 0
214 5 15.436381108444298 2.427470840915078 10.99246455619264 0 0 0
215 5 16.893382483572662 3.2463190774976205 1.4016723374261078 0 0 0
216 5 15.617111016211169 4.061164801481928 6.101940454954445 0 0 0
217 5 19.865580518712495 0.01583485678881549 3.34348563880268 0 1 0
218 5 20.093286699928527 3.3802571364000222 8.08182940930693 0 0 0
219 5 18.43674566041657 4.029602914152799 12.780462658225021 0 0 0
220 5 16.749662081705814 4.723580494654437 10.809449578936796 0 0 0
221 5 19.718017786867467 3.223695247102773 1.2894924316417118 0 0 0
222 5 18.502601134555505 4.101547357642832 6.056065036234476 0 0 0
223 5 21.466421133398452 2.5446997364905624 3.2922890627453616 0 0 0
224 5 22.750153509703676 3.408695773936249 7.89628525635037 0 0 0
225 5 21.52588482014995 4.272868333114392 12.918848672820925 0 0 0
226 5 19.854761103182568 4.864758801088119 10.908578299970245 0 0 0
227 5 22.375970573840313 3.039168194559075 1.2069747237649298 0 0 0
228 5 21.10801466228866 3.9882457494731955 5.989952997889489 0 0 0
229 5 24.119888542185056 2.366645993631684 3.162699344392365 0 0 0
230 5 25.69560172940157 3.316466765365735 7.991891358603908 0 0 0
231 5 24.274728785680885 4.198001176194817 12.603619914861133 0 0 0
232 5 22.484298402916046 4.81690818785825 10.750491399031555 0 0 0
233 5 25.380641885495283 3.102389692318281 1.2233632613359655 0 0 0
234 5 23.882948056175447 4.039678581881308 5.875323860699082 0 0 0
235 1 15.613183739072225 4.101330691322656 2.417753989173029 0 0 0
236 1 16.99191644322569 3.2468992932334375 11.85804269355493 0 0 0
237 1 22.74193360128393 0.015442151931270338 7.016773633363114 0 1 0
238 3 15.831312083059274 2.5174016529359373 7.122870053572439 0 0 0
239 3 21.24156361824156 4.050850009060767 2.2119254036121987 0 0 0
240 3 22.73256901931939 3.3287680734539196 11.829075973976082 0 0 0
421 2 12.659795914751568 2.5028890118932825 14.13306763390482 0 0 0
422 2 14.417637454591315 3.335790704183034 18.825815369479866 0 0 0
423 2 13.133099173239044 4.195596611409526 23.4948591177909 0 0 0
424 2 17.107545757416567 0.19184323155126487 14.265805648951416 0 1 0
425 2 16.99966810581924 3.500737154315775 18.768036094949515 0 0 0
426 2 15.722847493544368 4.0140815684985975 23.824213427394838 0 0 0
427 2 16.920351328303497 4.905506685065167 14.210780859293225 0 0 0
428 2 20.013624036457873 3.26277089174077 18.72247418443684 0 0 0
429 2 18.550232887926782 3.835897939425575 23.59059323402811 0 0 0
430 2 21.265142812222514 2.2389705990429873 13.944975387244217 0 0 0
431 2 22.745959727947273 3.1723837352499835 18.678403918620575 0 0 0
432 2 21.521921100088832 3.686252043640136 23.67683606326136 0 0 0
433 2 24.209301240141098 2.4900610283136437 14.267156502951199 0 0 0
434 2 25.564607764289008 3.2439580781615613 19.016100991922826 0 0 0
435 2 24.35656620872007 3.9443779646927744 23.574732784545464 0 0 0
436 4 12.729127541871517 4.069852328870109 16.635655072381184 0 0 0
437 4 12.83940904136925 2.484907068373101 21.19778074380848 0 0 0
438 4 14.223921883727137 3.3327591017416243 26.188810590811414 0 0 0
439 4 18.393495385311727 4.102804221910223 16.42415434437142 0 0 0